/*--------------------------------*- C++ -*----------------------------------*\
| =========                 |                                                 |
| \\      /  F ield         | OpenFOAM: The Open Source CFD Toolbox           |
|  \\    /   O peration     | Version:  2512                                  |
|   \\  /    A nd           | Website:  www.openfoam.com                      |
|    \\/     M anipulation  |                                                 |
\*---------------------------------------------------------------------------*/
FoamFile
{
    version     2.0;
    format      ascii;
    arch        "LSB;label=32;scalar=64";
    class       pointScalarField;
    location    "0";
    object      streamFunction;
}
// * * * * * * * * * * * * * * * * * * * * * * * * * * * * * * * * * * * * * //

dimensions      [0 3 -1 0 0 0 0];

internalField   nonuniform List<scalar> 
4222
(
0
0
0.0651311
0.125945
0.183357
0.238042
0.290507
0.341143
0.390256
0.438087
0.484815
0
0
0.0701064
0.135572
0.197383
0.256266
0.312766
0.367303
0.420205
0.471732
0.522095
-0.076124
0.00493587
0.0795912
0.14931
0.215142
0.277861
0.338048
0.396147
0.452506
0.507401
0.561061
-0.0761234
0.00937591
0.0881235
0.161668
0.231119
0.29729
0.360793
0.422095
0.481558
0.539465
0.596034
-0.0761233
0.0132907
0.0956466
0.172565
0.245208
0.314425
0.380858
0.444994
0.50721
0.567802
0.627002
-0.076123
0.0166538
0.10211
0.181929
0.257316
0.329155
0.398112
0.464693
0.529293
0.592222
0.653727
-0.0761231
0.0194425
0.10747
0.189695
0.267359
0.341376
0.412432
0.481051
0.54764
0.612524
0.675961
-0.0761228
0.0216373
0.111689
0.195808
0.275267
0.351001
0.423713
0.49394
0.562103
0.628533
0.693499
-0.076123
0.0232229
0.114737
0.200225
0.280981
0.357957
0.431867
0.503259
0.57256
0.64011
0.706182
-0.0761222
0.0241878
0.116592
0.202913
0.284459
0.362191
0.43683
0.508932
0.578926
0.647156
0.7139
-0.0761227
0.0245253
0.117241
0.203854
0.285676
0.363671
0.438565
0.510913
0.581147
0.649612
0.716587
0
0
0.0651311
0.125945
0.183357
0.238042
0.290507
0.341143
0.390256
0.438087
0.484815
0
0
0.0701064
0.135572
0.197383
0.256266
0.312766
0.367303
0.420205
0.471732
0.522095
-0.076124
0.00493587
0.0795912
0.14931
0.215142
0.277861
0.338048
0.396147
0.452506
0.507401
0.561061
-0.0761234
0.00937591
0.0881235
0.161668
0.231119
0.29729
0.360793
0.422095
0.481558
0.539465
0.596034
-0.0761233
0.0132907
0.0956466
0.172565
0.245208
0.314425
0.380858
0.444994
0.50721
0.567802
0.627002
-0.076123
0.0166538
0.10211
0.181929
0.257316
0.329155
0.398112
0.464693
0.529293
0.592222
0.653727
-0.0761231
0.0194425
0.10747
0.189695
0.267359
0.341376
0.412432
0.481051
0.54764
0.612524
0.675961
-0.0761228
0.0216373
0.111689
0.195808
0.275267
0.351001
0.423713
0.49394
0.562103
0.628533
0.693499
-0.076123
0.0232229
0.114737
0.200225
0.280981
0.357957
0.431867
0.503259
0.57256
0.64011
0.706182
-0.0761222
0.0241878
0.116592
0.202913
0.284459
0.362191
0.43683
0.508932
0.578926
0.647156
0.7139
-0.0761227
0.0245253
0.117241
0.203854
0.285676
0.363671
0.438565
0.510913
0.581147
0.649612
0.716587
0
-0.0707281
-0.0707303
-0.0707305
-0.0707294
-0.0707278
-0.0707253
-0.070724
-0.0707217
-0.0707212
-0.0707195
-0.0707281
-0.0629286
-0.0557514
-0.049054
-0.0427376
-0.0367295
-0.0309737
-0.0254294
-0.0200601
-0.0148408
-0.0097449
-0.0707273
-0.0551734
-0.0408576
-0.0275005
-0.0149043
-0.0029235
0.0085527
0.0196074
0.0303102
0.0407128
0.050863
-0.0707267
-0.0475069
-0.0261339
-0.0061924
0.012613
0.0304996
0.0476317
0.0641335
0.0801061
0.095627
0.110765
-0.0707263
-0.0399734
-0.0116648
0.0147486
0.0396583
0.0633519
0.0860456
0.107903
0.129054
0.149601
0.169628
-0.0707261
-0.0326167
0.0024656
0.0352016
0.066077
0.0954482
0.123582
0.150678
0.176896
0.202354
0.227152
-0.0707258
-0.0254805
0.0161737
0.0550463
0.0917153
0.126604
0.16003
0.192229
0.223385
0.253634
0.28308
-0.0707259
-0.0186083
0.029376
0.0741623
0.116418
0.156634
0.195176
0.232321
0.268278
0.303204
0.337207
-0.070726
-0.0120431
0.04199
0.0924292
0.14003
0.185346
0.228796
0.270698
0.3113
0.350792
0.389319
-0.0707259
-0.00582678
0.0539345
0.109728
0.162393
0.212545
0.260651
0.307071
0.352093
0.395962
0.438915
0
-0.0707281
-0.0707303
-0.0707305
-0.0707294
-0.0707278
-0.0707253
-0.070724
-0.0707217
-0.0707212
-0.0707195
-0.0707281
-0.0629286
-0.0557514
-0.049054
-0.0427376
-0.0367295
-0.0309737
-0.0254294
-0.0200601
-0.0148408
-0.0097449
-0.0707273
-0.0551734
-0.0408576
-0.0275005
-0.0149043
-0.0029235
0.0085527
0.0196074
0.0303102
0.0407128
0.050863
-0.0707267
-0.0475069
-0.0261339
-0.0061924
0.012613
0.0304996
0.0476317
0.0641335
0.0801061
0.095627
0.110765
-0.0707263
-0.0399734
-0.0116648
0.0147486
0.0396583
0.0633519
0.0860456
0.107903
0.129054
0.149601
0.169628
-0.0707261
-0.0326167
0.0024656
0.0352016
0.066077
0.0954482
0.123582
0.150678
0.176896
0.202354
0.227152
-0.0707258
-0.0254805
0.0161737
0.0550463
0.0917153
0.126604
0.16003
0.192229
0.223385
0.253634
0.28308
-0.0707259
-0.0186083
0.029376
0.0741623
0.116418
0.156634
0.195176
0.232321
0.268278
0.303204
0.337207
-0.070726
-0.0120431
0.04199
0.0924292
0.14003
0.185346
0.228796
0.270698
0.3113
0.350792
0.389319
-0.0707259
-0.00582678
0.0539345
0.109728
0.162393
0.212545
0.260651
0.307071
0.352093
0.395962
0.438915
-0.0707195
-0.0707194
-0.0707194
-0.0707192
-0.0707193
-0.0707191
-0.0707192
-0.070719
-0.070719
-0.0707189
-0.0707189
-0.0707188
-0.0707188
-0.0707188
-0.0707188
-0.0707188
-0.0707188
-0.0707188
-0.0707188
0.332536
-0.00819327
-0.00692201
-0.00588641
-0.00504984
-0.00438178
-0.00385662
-0.00345287
-0.00315263
-0.00294123
-0.00280688
-0.00274018
-0.00273379
-0.00278192
-0.00288007
-0.00302468
-0.00321297
-0.00344278
-0.00371245
-0.00402082
0.398887
0.0539715
0.056528
0.0586164
0.060309
0.0616664
0.0627396
0.0635715
0.0641978
0.0646473
0.0649431
0.0651035
0.0651426
0.0650719
0.0649003
0.0646348
0.0642814
0.0638443
0.0633272
0.0627325
0.332459
0.115447
0.119314
0.122485
0.125068
0.127153
0.128817
0.130124
0.131127
0.131866
0.132376
0.132682
0.132804
0.13276
0.132562
0.132222
0.131749
0.131149
0.130428
0.129591
0.399037
0.1759
0.181115
0.18541
0.188932
0.191803
0.194123
0.195978
0.197432
0.19854
0.19934
0.199867
0.200146
0.200199
0.200044
0.199697
0.199169
0.198472
0.197613
0.196599
0.46583
0.235022
0.241621
0.24709
0.251617
0.255352
0.258422
0.260922
0.262931
0.264506
0.265695
0.266536
0.267062
0.267301
0.267276
0.267008
0.266513
0.265805
0.264895
0.263791
0.398764
0.292531
0.300543
0.307245
0.312863
0.317572
0.32151
0.324779
0.32746
0.329615
0.3313
0.332561
0.333439
0.333967
0.334177
0.334094
0.333739
0.333129
0.332277
0.331194
0.46615
0.34818
0.357621
0.365637
0.372472
0.378295
0.383236
0.387397
0.390863
0.39371
0.396001
0.397795
0.39914
0.400079
0.400648
0.400878
0.400793
0.400412
0.399751
0.398821
0.533896
0.401744
0.412646
0.422125
0.430333
0.437401
0.443453
0.448603
0.452953
0.456596
0.459609
0.46206
0.464008
0.465499
0.466576
0.467271
0.46761
0.467615
0.467302
0.466683
0.465759
0.452917
0.465488
0.476627
0.486312
0.494684
0.501906
0.508122
0.513459
0.51802
0.521895
0.525158
0.527871
0.530086
0.531844
0.53318
0.534123
0.534694
0.534909
0.534779
0.534313
0.50069
0.515094
0.527988
0.539319
0.549212
0.557839
0.565361
0.571918
0.577626
0.582585
0.586875
0.590563
0.593706
0.596349
0.598529
0.600275
0.601611
0.602553
0.603114
0.6033
-0.0707195
-0.0707194
-0.0707194
-0.0707192
-0.0707193
-0.0707191
-0.0707192
-0.070719
-0.070719
-0.0707189
-0.0707189
-0.0707188
-0.0707188
-0.0707188
-0.0707188
-0.0707188
-0.0707188
-0.0707188
-0.0707188
0.332536
-0.00819327
-0.00692201
-0.00588641
-0.00504984
-0.00438178
-0.00385662
-0.00345287
-0.00315263
-0.00294123
-0.00280688
-0.00274018
-0.00273379
-0.00278192
-0.00288007
-0.00302468
-0.00321297
-0.00344278
-0.00371245
-0.00402082
0.398887
0.0539715
0.056528
0.0586164
0.060309
0.0616664
0.0627396
0.0635715
0.0641978
0.0646473
0.0649431
0.0651035
0.0651426
0.0650719
0.0649003
0.0646348
0.0642814
0.0638443
0.0633272
0.0627325
0.332459
0.115447
0.119314
0.122485
0.125068
0.127153
0.128817
0.130124
0.131127
0.131866
0.132376
0.132682
0.132804
0.13276
0.132562
0.132222
0.131749
0.131149
0.130428
0.129591
0.399037
0.1759
0.181115
0.18541
0.188932
0.191803
0.194123
0.195978
0.197432
0.19854
0.19934
0.199867
0.200146
0.200199
0.200044
0.199697
0.199169
0.198472
0.197613
0.196599
0.46583
0.235022
0.241621
0.24709
0.251617
0.255352
0.258422
0.260922
0.262931
0.264506
0.265695
0.266536
0.267062
0.267301
0.267276
0.267008
0.266513
0.265805
0.264895
0.263791
0.398764
0.292531
0.300543
0.307245
0.312863
0.317572
0.32151
0.324779
0.32746
0.329615
0.3313
0.332561
0.333439
0.333967
0.334177
0.334094
0.333739
0.333129
0.332277
0.331194
0.46615
0.34818
0.357621
0.365637
0.372472
0.378295
0.383236
0.387397
0.390863
0.39371
0.396001
0.397795
0.39914
0.400079
0.400648
0.400878
0.400793
0.400412
0.399751
0.398821
0.533896
0.401744
0.412646
0.422125
0.430333
0.437401
0.443453
0.448603
0.452953
0.456596
0.459609
0.46206
0.464008
0.465499
0.466576
0.467271
0.46761
0.467615
0.467302
0.466683
0.465759
0.452917
0.465488
0.476627
0.486312
0.494684
0.501906
0.508122
0.513459
0.51802
0.521895
0.525158
0.527871
0.530086
0.531844
0.53318
0.534123
0.534694
0.534909
0.534779
0.534313
0.50069
0.515094
0.527988
0.539319
0.549212
0.557839
0.565361
0.571918
0.577626
0.582585
0.586875
0.590563
0.593706
0.596349
0.598529
0.600275
0.601611
0.602553
0.603114
0.6033
0.553447
0.568031
0.581258
0.593188
0.603837
0.613279
0.621613
0.628952
0.635397
0.641043
0.645971
0.650251
0.653943
0.657096
0.659753
0.661948
0.663708
0.665056
0.666007
0.666573
0.53984
0.623695
0.636729
0.648722
0.659666
0.669564
0.678451
0.686384
0.693435
0.699676
0.705178
0.710006
0.714217
0.717861
0.720983
0.72362
0.725801
0.727554
0.728896
0.729845
0.73041
0.603676
0.694966
0.706469
0.717234
0.727189
0.736302
0.744577
0.752038
0.758728
0.764694
0.769988
0.774657
0.778748
0.782302
0.785356
0.787941
0.790084
0.791808
0.793131
0.794067
0.794624
0.667888
0.766817
0.776946
0.786558
0.795554
0.80388
0.811515
0.818464
0.824744
0.830386
0.835421
0.839886
0.843816
0.847243
0.850197
0.852703
0.854786
0.856465
0.857754
0.858667
0.859211
0.603306
0.839012
0.847939
0.856498
0.864589
0.872147
0.879141
0.885557
0.8914
0.896682
0.901425
0.905651
0.909387
0.912657
0.915484
0.91789
0.919893
0.92151
0.922754
0.923635
0.92416
0.66825
0.911429
0.919301
0.926906
0.934154
0.94098
0.947344
0.953225
0.958616
0.963519
0.967944
0.971907
0.975424
0.978513
0.981193
0.983479
0.985386
0.986928
0.988116
0.988958
0.989461
0.733543
0.983993
0.99093
0.997672
1.00414
1.01027
1.01603
1.02138
1.02632
1.03083
1.03493
1.03861
1.04189
1.04478
1.0473
1.04945
1.05124
1.0527
1.05382
1.05462
1.0551
0.667915
1.05665
1.06275
1.06871
1.07446
1.07994
1.08512
1.08996
1.09444
1.09857
1.10232
1.10571
1.10874
1.11142
1.11376
1.11577
1.11744
1.11881
1.11986
1.1206
1.12105
0.733859
1.12937
1.13472
1.13996
1.14505
1.14992
1.15455
1.15889
1.16293
1.16667
1.17008
1.17317
1.17595
1.17841
1.18056
1.18241
1.18396
1.18522
1.1862
1.18689
1.1873
0.8001
1.20211
1.20678
1.21138
1.21585
1.22015
1.22425
1.22812
1.23173
1.23508
1.23816
1.24095
1.24347
1.24571
1.24766
1.24935
1.25077
1.25192
1.25282
1.25345
1.25383
0.733584
1.27487
1.27892
1.28291
1.28681
1.29058
1.29419
1.2976
1.3008
1.30378
1.30652
1.30902
1.31127
1.31328
1.31504
1.31656
1.31784
1.31889
1.31969
1.32027
1.32061
0.800354
1.34762
1.3511
1.35454
1.35791
1.36118
1.36432
1.36729
1.3701
1.37271
1.37512
1.37732
1.37932
1.38109
1.38266
1.38401
1.38515
1.38608
1.3868
1.38732
1.38762
0.867353
1.42036
1.42331
1.42624
1.42912
1.43191
1.4346
1.43716
1.43958
1.44184
1.44393
1.44584
1.44757
1.44913
1.45049
1.45168
1.45267
1.45349
1.45412
1.45457
1.45484
0.800149
1.49308
1.49554
1.49799
1.5004
1.50275
1.50502
1.50718
1.50922
1.51113
1.51291
1.51454
1.51602
1.51734
1.51851
1.51952
1.52038
1.52108
1.52162
1.52201
1.52224
0.867533
1.56577
1.56778
1.56978
1.57175
1.57368
1.57553
1.57731
1.57899
1.58057
1.58204
1.58339
1.58461
1.58571
1.58668
1.58753
1.58824
1.58882
1.58927
1.5896
1.58979
0.935072
1.63845
1.64002
1.64159
1.64315
1.64466
1.64613
1.64754
1.64887
1.65012
1.65129
1.65236
1.65334
1.65421
1.65499
1.65566
1.65623
1.65669
1.65706
1.65732
1.65747
0.867404
1.7111
1.71226
1.71343
1.71458
1.7157
1.71679
1.71784
1.71883
1.71976
1.72063
1.72143
1.72216
1.72281
1.72339
1.7239
1.72432
1.72467
1.72494
1.72514
1.72525
0.935175
1.78374
1.7845
1.78527
1.78603
1.78678
1.7875
1.78819
1.78884
1.78946
1.79004
1.79057
1.79105
1.79149
1.79188
1.79221
1.7925
1.79273
1.79291
1.79304
1.79312
0.867326
1.85636
1.85674
1.85713
1.8575
1.85787
1.85823
1.85857
1.8589
1.85921
1.85949
1.85976
1.86
1.86022
1.86041
1.86058
1.86072
1.86084
1.86093
1.86099
1.86103
0.935227
1.92898
1.92898
1.92898
1.92898
1.92898
1.92898
1.92898
1.92897
1.92897
1.92897
1.92897
1.92897
1.92897
1.92897
1.92897
1.92897
1.92897
1.92897
1.92897
1.92897
1.00315
0.553447
0.568031
0.581258
0.593188
0.603837
0.613279
0.621613
0.628952
0.635397
0.641043
0.645971
0.650251
0.653943
0.657096
0.659753
0.661948
0.663708
0.665056
0.666007
0.666573
0.53984
0.623695
0.636729
0.648722
0.659666
0.669564
0.678451
0.686384
0.693435
0.699676
0.705178
0.710006
0.714217
0.717861
0.720983
0.72362
0.725801
0.727554
0.728896
0.729845
0.73041
0.603676
0.694966
0.706469
0.717234
0.727189
0.736302
0.744577
0.752038
0.758728
0.764694
0.769988
0.774657
0.778748
0.782302
0.785356
0.787941
0.790084
0.791808
0.793131
0.794067
0.794624
0.667888
0.766817
0.776946
0.786558
0.795554
0.80388
0.811515
0.818464
0.824744
0.830386
0.835421
0.839886
0.843816
0.847243
0.850197
0.852703
0.854786
0.856465
0.857754
0.858667
0.859211
0.603306
0.839012
0.847939
0.856498
0.864589
0.872147
0.879141
0.885557
0.8914
0.896682
0.901425
0.905651
0.909387
0.912657
0.915484
0.91789
0.919893
0.92151
0.922754
0.923635
0.92416
0.66825
0.911429
0.919301
0.926906
0.934154
0.94098
0.947344
0.953225
0.958616
0.963519
0.967944
0.971907
0.975424
0.978513
0.981193
0.983479
0.985386
0.986928
0.988116
0.988958
0.989461
0.733543
0.983993
0.99093
0.997672
1.00414
1.01027
1.01603
1.02138
1.02632
1.03083
1.03493
1.03861
1.04189
1.04478
1.0473
1.04945
1.05124
1.0527
1.05382
1.05462
1.0551
0.667915
1.05665
1.06275
1.06871
1.07446
1.07994
1.08512
1.08996
1.09444
1.09857
1.10232
1.10571
1.10874
1.11142
1.11376
1.11577
1.11744
1.11881
1.11986
1.1206
1.12105
0.733859
1.12937
1.13472
1.13996
1.14505
1.14992
1.15455
1.15889
1.16293
1.16667
1.17008
1.17317
1.17595
1.17841
1.18056
1.18241
1.18396
1.18522
1.1862
1.18689
1.1873
0.8001
1.20211
1.20678
1.21138
1.21585
1.22015
1.22425
1.22812
1.23173
1.23508
1.23816
1.24095
1.24347
1.24571
1.24766
1.24935
1.25077
1.25192
1.25282
1.25345
1.25383
0.733584
1.27487
1.27892
1.28291
1.28681
1.29058
1.29419
1.2976
1.3008
1.30378
1.30652
1.30902
1.31127
1.31328
1.31504
1.31656
1.31784
1.31889
1.31969
1.32027
1.32061
0.800354
1.34762
1.3511
1.35454
1.35791
1.36118
1.36432
1.36729
1.3701
1.37271
1.37512
1.37732
1.37932
1.38109
1.38266
1.38401
1.38515
1.38608
1.3868
1.38732
1.38762
0.867353
1.42036
1.42331
1.42624
1.42912
1.43191
1.4346
1.43716
1.43958
1.44184
1.44393
1.44584
1.44757
1.44913
1.45049
1.45168
1.45267
1.45349
1.45412
1.45457
1.45484
0.800149
1.49308
1.49554
1.49799
1.5004
1.50275
1.50502
1.50718
1.50922
1.51113
1.51291
1.51454
1.51602
1.51734
1.51851
1.51952
1.52038
1.52108
1.52162
1.52201
1.52224
0.867533
1.56577
1.56778
1.56978
1.57175
1.57368
1.57553
1.57731
1.57899
1.58057
1.58204
1.58339
1.58461
1.58571
1.58668
1.58753
1.58824
1.58882
1.58927
1.5896
1.58979
0.935072
1.63845
1.64002
1.64159
1.64315
1.64466
1.64613
1.64754
1.64887
1.65012
1.65129
1.65236
1.65334
1.65421
1.65499
1.65566
1.65623
1.65669
1.65706
1.65732
1.65747
0.867404
1.7111
1.71226
1.71343
1.71458
1.7157
1.71679
1.71784
1.71883
1.71976
1.72063
1.72143
1.72216
1.72281
1.72339
1.7239
1.72432
1.72467
1.72494
1.72514
1.72525
0.935175
1.78374
1.7845
1.78527
1.78603
1.78678
1.7875
1.78819
1.78884
1.78946
1.79004
1.79057
1.79105
1.79149
1.79188
1.79221
1.7925
1.79273
1.79291
1.79304
1.79312
0.867326
1.85636
1.85674
1.85713
1.8575
1.85787
1.85823
1.85857
1.8589
1.85921
1.85949
1.85976
1.86
1.86022
1.86041
1.86058
1.86072
1.86084
1.86093
1.86099
1.86103
0.935227
1.92898
1.92898
1.92898
1.92898
1.92898
1.92898
1.92898
1.92897
1.92897
1.92897
1.92897
1.92897
1.92897
1.92897
1.92897
1.92897
1.92897
1.92897
1.92897
1.92897
1.00315
0.782286
0.779639
0.772038
0.759546
0.742266
0.720342
0.693964
0.663357
0.628748
0.590198
0.846902
0.844322
0.836915
0.824752
0.807934
0.786608
0.760953
0.731164
0.697381
0.659612
0.910583
0.908092
0.900946
0.889216
0.873004
0.852445
0.827693
0.798887
0.766119
0.729527
0.973452
0.971067
0.96423
0.953009
0.937496
0.917806
0.894056
0.866351
0.834811
0.799701
1.03561
1.03334
1.02685
1.01619
1.00143
0.982678
0.960017
0.933552
0.903451
0.870031
1.09714
1.095
1.08887
1.0788
1.06485
1.04709
1.02561
1.00052
0.97203
0.940446
1.15812
1.15612
1.15036
1.14091
1.1278
1.1111
1.09088
1.06729
1.04053
1.0109
1.21862
1.21675
1.21138
1.20257
1.19034
1.17474
1.15588
1.13388
1.10895
1.08135
1.27868
1.27695
1.27199
1.26383
1.25251
1.23808
1.22063
1.20029
1.17727
1.15178
1.33837
1.33679
1.33224
1.32476
1.31438
1.30115
1.28516
1.26655
1.24549
1.22217
1.39774
1.3963
1.39217
1.38539
1.37597
1.36398
1.34951
1.33267
1.31362
1.29251
1.45682
1.45553
1.45183
1.44576
1.43734
1.42662
1.41369
1.39865
1.38164
1.36279
1.51566
1.51452
1.51127
1.50592
1.49851
1.48909
1.47772
1.46452
1.44958
1.43303
1.5743
1.57332
1.57051
1.5659
1.55952
1.55141
1.54163
1.53028
1.51744
1.50321
1.63276
1.63194
1.62959
1.62573
1.62039
1.6136
1.60543
1.59595
1.58523
1.57334
1.69109
1.69044
1.68854
1.68544
1.68115
1.67571
1.66915
1.66155
1.65296
1.64344
1.74932
1.74882
1.74739
1.74506
1.74183
1.73773
1.73281
1.7271
1.72065
1.7135
1.80746
1.80713
1.80617
1.8046
1.80244
1.7997
1.79642
1.79261
1.7883
1.78353
1.86555
1.86539
1.8649
1.86411
1.86302
1.86165
1.86
1.85809
1.85594
1.85356
1.92362
1.92362
1.9236
1.92359
1.92358
1.92358
1.92357
1.92357
1.92358
1.92358
0.782286
0.779639
0.772038
0.759546
0.742266
0.720342
0.693964
0.663357
0.628748
0.590198
0.846902
0.844322
0.836915
0.824752
0.807934
0.786608
0.760953
0.731164
0.697381
0.659612
0.910583
0.908092
0.900946
0.889216
0.873004
0.852445
0.827693
0.798887
0.766119
0.729527
0.973452
0.971067
0.96423
0.953009
0.937496
0.917806
0.894056
0.866351
0.834811
0.799701
1.03561
1.03334
1.02685
1.01619
1.00143
0.982678
0.960017
0.933552
0.903451
0.870031
1.09714
1.095
1.08887
1.0788
1.06485
1.04709
1.02561
1.00052
0.97203
0.940446
1.15812
1.15612
1.15036
1.14091
1.1278
1.1111
1.09088
1.06729
1.04053
1.0109
1.21862
1.21675
1.21138
1.20257
1.19034
1.17474
1.15588
1.13388
1.10895
1.08135
1.27868
1.27695
1.27199
1.26383
1.25251
1.23808
1.22063
1.20029
1.17727
1.15178
1.33837
1.33679
1.33224
1.32476
1.31438
1.30115
1.28516
1.26655
1.24549
1.22217
1.39774
1.3963
1.39217
1.38539
1.37597
1.36398
1.34951
1.33267
1.31362
1.29251
1.45682
1.45553
1.45183
1.44576
1.43734
1.42662
1.41369
1.39865
1.38164
1.36279
1.51566
1.51452
1.51127
1.50592
1.49851
1.48909
1.47772
1.46452
1.44958
1.43303
1.5743
1.57332
1.57051
1.5659
1.55952
1.55141
1.54163
1.53028
1.51744
1.50321
1.63276
1.63194
1.62959
1.62573
1.62039
1.6136
1.60543
1.59595
1.58523
1.57334
1.69109
1.69044
1.68854
1.68544
1.68115
1.67571
1.66915
1.66155
1.65296
1.64344
1.74932
1.74882
1.74739
1.74506
1.74183
1.73773
1.73281
1.7271
1.72065
1.7135
1.80746
1.80713
1.80617
1.8046
1.80244
1.7997
1.79642
1.79261
1.7883
1.78353
1.86555
1.86539
1.8649
1.86411
1.86302
1.86165
1.86
1.85809
1.85594
1.85356
1.92362
1.92362
1.9236
1.92359
1.92358
1.92358
1.92357
1.92357
1.92358
1.92358
0.482852
0.435723
0.38755
0.338088
0.287114
0.234319
0.17931
0.121573
0.0604316
-0.00503904
-0.0761229
0.525225
0.474536
0.42271
0.369499
0.314656
0.257853
0.198668
0.136552
0.070775
0.000344313
-0.0761219
0.563834
0.509914
0.454772
0.398148
0.339781
0.279324
0.216331
0.15022
0.0802134
0.00525657
-0.0761214
0.598438
0.541662
0.483555
0.423871
0.36234
0.298602
0.23219
0.16249
0.088687
0.00966682
-0.076121
0.629039
0.569676
0.508923
0.446527
0.382201
0.31557
0.246145
0.173287
0.0961421
0.0135468
-0.0761211
0.655404
0.593772
0.530718
0.465974
0.399239
0.330119
0.258108
0.182541
0.102531
0.0168714
-0.0761209
0.677288
0.613756
0.548777
0.482076
0.413337
0.342153
0.267999
0.19019
0.107811
0.0196189
-0.0761214
0.694485
0.629451
0.562952
0.494709
0.424393
0.351586
0.27575
0.196182
0.111947
0.0217708
-0.0761215
0.706834
0.640719
0.573125
0.503771
0.43232
0.358348
0.281304
0.200475
0.11491
0.0233124
-0.076122
0.714224
0.647459
0.579207
0.509187
0.437057
0.362387
0.284621
0.203039
0.116678
0.0242328
-0.0761222
0.482852
0.435723
0.38755
0.338088
0.287114
0.234319
0.17931
0.121573
0.0604316
-0.00503904
-0.0761229
0.525225
0.474536
0.42271
0.369499
0.314656
0.257853
0.198668
0.136552
0.070775
0.000344313
-0.0761219
0.563834
0.509914
0.454772
0.398148
0.339781
0.279324
0.216331
0.15022
0.0802134
0.00525657
-0.0761214
0.598438
0.541662
0.483555
0.423871
0.36234
0.298602
0.23219
0.16249
0.088687
0.00966682
-0.076121
0.629039
0.569676
0.508923
0.446527
0.382201
0.31557
0.246145
0.173287
0.0961421
0.0135468
-0.0761211
0.655404
0.593772
0.530718
0.465974
0.399239
0.330119
0.258108
0.182541
0.102531
0.0168714
-0.0761209
0.677288
0.613756
0.548777
0.482076
0.413337
0.342153
0.267999
0.19019
0.107811
0.0196189
-0.0761214
0.694485
0.629451
0.562952
0.494709
0.424393
0.351586
0.27575
0.196182
0.111947
0.0217708
-0.0761215
0.706834
0.640719
0.573125
0.503771
0.43232
0.358348
0.281304
0.200475
0.11491
0.0233124
-0.076122
0.714224
0.647459
0.579207
0.509187
0.437057
0.362387
0.284621
0.203039
0.116678
0.0242328
-0.0761222
-0.0763625
-0.0763545
-0.076297
-0.076269
-0.0762436
-0.076221
-0.0761986
-0.076177
-0.0761547
-0.0761339
0
-0.0145756
-0.0197711
-0.0250339
-0.0304645
-0.0360666
-0.0418755
-0.0479329
-0.0542962
-0.0610389
-0.0682647
-0.0761319
0.0468039
0.0364517
0.0259105
0.0150599
0.00386749
-0.00773629
-0.0198364
-0.0325462
-0.0460136
-0.0604431
-0.0761302
0.1074
0.091971
0.076228
0.0600309
0.0433199
0.025993
0.00792335
-0.0110568
-0.0311684
-0.0527153
-0.0761287
0.166851
0.146461
0.125625
0.104185
0.082059
0.0591133
0.0351819
0.0100442
-0.0165919
-0.0451276
-0.0761273
0.224837
0.199626
0.173827
0.147274
0.119862
0.0914309
0.0617778
0.0306308
-0.00237146
-0.0377254
-0.0761261
0.281093
0.251203
0.220582
0.189058
0.156511
0.122756
0.0875524
0.0505791
0.0114067
-0.0305539
-0.076125
0.335414
0.300955
0.265641
0.229299
0.191789
0.152899
0.112348
0.0697666
0.0246579
-0.023657
-0.0761242
0.387594
0.348613
0.308732
0.267744
0.225472
0.181668
0.136008
0.0880726
0.0372989
-0.017078
-0.0761235
0.437139
0.393744
0.3495
0.304103
0.257323
0.208869
0.158378
0.105379
0.0492491
-0.0108587
-0.0761228
-0.0763625
-0.0763545
-0.076297
-0.076269
-0.0762436
-0.076221
-0.0761986
-0.076177
-0.0761547
-0.0761339
0
-0.0145756
-0.0197711
-0.0250339
-0.0304645
-0.0360666
-0.0418755
-0.0479329
-0.0542962
-0.0610389
-0.0682647
-0.0761319
0.0468039
0.0364517
0.0259105
0.0150599
0.00386749
-0.00773629
-0.0198364
-0.0325462
-0.0460136
-0.0604431
-0.0761302
0.1074
0.091971
0.076228
0.0600309
0.0433199
0.025993
0.00792335
-0.0110568
-0.0311684
-0.0527153
-0.0761287
0.166851
0.146461
0.125625
0.104185
0.082059
0.0591133
0.0351819
0.0100442
-0.0165919
-0.0451276
-0.0761273
0.224837
0.199626
0.173827
0.147274
0.119862
0.0914309
0.0617778
0.0306308
-0.00237146
-0.0377254
-0.0761261
0.281093
0.251203
0.220582
0.189058
0.156511
0.122756
0.0875524
0.0505791
0.0114067
-0.0305539
-0.076125
0.335414
0.300955
0.265641
0.229299
0.191789
0.152899
0.112348
0.0697666
0.0246579
-0.023657
-0.0761242
0.387594
0.348613
0.308732
0.267744
0.225472
0.181668
0.136008
0.0880726
0.0372989
-0.017078
-0.0761235
0.437139
0.393744
0.3495
0.304103
0.257323
0.208869
0.158378
0.105379
0.0492491
-0.0108587
-0.0761228
0.772083
-0.07637
-0.0763699
-0.0763699
-0.0763697
-0.0763697
-0.0763696
-0.0763694
-0.0763693
-0.0763692
-0.0763692
-0.076369
-0.076369
-0.0763688
-0.0763686
-0.0763681
-0.0763677
-0.076367
-0.0763663
-0.0763653
0.701373
-0.00594059
-0.00590823
-0.0058927
-0.00589754
-0.00592637
-0.00598305
-0.0060718
-0.00619741
-0.00636549
-0.00658276
-0.00685747
-0.00719977
-0.00762218
-0.00814003
-0.00877185
-0.00953974
-0.0104699
-0.0115934
-0.012947
0.772083
0.0644701
0.064513
0.064522
0.0644898
0.0644091
0.0642722
0.0640705
0.0637945
0.063433
0.0629728
0.0623978
0.0616882
0.0608196
0.0597617
0.0584776
0.0569232
0.055046
0.0527842
0.0500646
0.701373
0.134868
0.134878
0.134836
0.134732
0.134555
0.134292
0.133931
0.133457
0.132853
0.1321
0.131175
0.13005
0.128688
0.127047
0.125071
0.122696
0.119842
0.116415
0.112307
0.630662
0.205247
0.205159
0.205001
0.20476
0.20442
0.203966
0.203378
0.202638
0.201722
0.200605
0.199258
0.197643
0.195717
0.193425
0.190697
0.187449
0.183573
0.178946
0.173417
0.701373
0.275597
0.275323
0.274962
0.274498
0.27391
0.273179
0.272281
0.271189
0.269876
0.268307
0.266445
0.264247
0.261662
0.258627
0.255063
0.250868
0.245913
0.240043
0.233062
0.630662
0.345914
0.345342
0.344668
0.343871
0.34293
0.341819
0.34051
0.338969
0.337161
0.335042
0.332566
0.329682
0.326329
0.322438
0.317925
0.312682
0.306569
0.299405
0.290953
0.559951
0.416181
0.415177
0.414054
0.412793
0.411371
0.409758
0.40792
0.405818
0.403407
0.400636
0.397447
0.393776
0.389551
0.384691
0.379104
0.372685
0.365297
0.356767
0.346838
0.630662
0.486392
0.484791
0.483058
0.481178
0.479124
0.476865
0.474361
0.471567
0.468432
0.464895
0.46089
0.456341
0.451158
0.445244
0.438489
0.430771
0.421961
0.411925
0.400501
0.559951
0.556545
0.554146
0.551614
0.548935
0.546081
0.543012
0.539683
0.536043
0.532035
0.527595
0.522648
0.517109
0.51088
0.503846
0.495875
0.486812
0.47649
0.464761
0.451643
0.489241
0.626705
0.623219
0.619673
0.616006
0.612166
0.608103
0.603762
0.599086
0.594012
0.588468
0.582371
0.575629
0.56813
0.559749
0.550335
0.539718
0.52772
0.514208
0.499237
0.772083
-0.07637
-0.0763699
-0.0763699
-0.0763697
-0.0763697
-0.0763696
-0.0763694
-0.0763693
-0.0763692
-0.0763692
-0.076369
-0.076369
-0.0763688
-0.0763686
-0.0763681
-0.0763677
-0.076367
-0.0763663
-0.0763653
0.701373
-0.00594059
-0.00590823
-0.0058927
-0.00589754
-0.00592637
-0.00598305
-0.0060718
-0.00619741
-0.00636549
-0.00658276
-0.00685747
-0.00719977
-0.00762218
-0.00814003
-0.00877185
-0.00953974
-0.0104699
-0.0115934
-0.012947
0.772083
0.0644701
0.064513
0.064522
0.0644898
0.0644091
0.0642722
0.0640705
0.0637945
0.063433
0.0629728
0.0623978
0.0616882
0.0608196
0.0597617
0.0584776
0.0569232
0.055046
0.0527842
0.0500646
0.701373
0.134868
0.134878
0.134836
0.134732
0.134555
0.134292
0.133931
0.133457
0.132853
0.1321
0.131175
0.13005
0.128688
0.127047
0.125071
0.122696
0.119842
0.116415
0.112307
0.630662
0.205247
0.205159
0.205001
0.20476
0.20442
0.203966
0.203378
0.202638
0.201722
0.200605
0.199258
0.197643
0.195717
0.193425
0.190697
0.187449
0.183573
0.178946
0.173417
0.701373
0.275597
0.275323
0.274962
0.274498
0.27391
0.273179
0.272281
0.271189
0.269876
0.268307
0.266445
0.264247
0.261662
0.258627
0.255063
0.250868
0.245913
0.240043
0.233062
0.630662
0.345914
0.345342
0.344668
0.343871
0.34293
0.341819
0.34051
0.338969
0.337161
0.335042
0.332566
0.329682
0.326329
0.322438
0.317925
0.312682
0.306569
0.299405
0.290953
0.559951
0.416181
0.415177
0.414054
0.412793
0.411371
0.409758
0.40792
0.405818
0.403407
0.400636
0.397447
0.393776
0.389551
0.384691
0.379104
0.372685
0.365297
0.356767
0.346838
0.630662
0.486392
0.484791
0.483058
0.481178
0.479124
0.476865
0.474361
0.471567
0.468432
0.464895
0.46089
0.456341
0.451158
0.445244
0.438489
0.430771
0.421961
0.411925
0.400501
0.559951
0.556545
0.554146
0.551614
0.548935
0.546081
0.543012
0.539683
0.536043
0.532035
0.527595
0.522648
0.517109
0.51088
0.503846
0.495875
0.486812
0.47649
0.464761
0.451643
0.489241
0.626705
0.623219
0.619673
0.616006
0.612166
0.608103
0.603762
0.599086
0.594012
0.588468
0.582371
0.575629
0.56813
0.559749
0.550335
0.539718
0.52772
0.514208
0.499237
0.553885
0.691518
0.687845
0.684152
0.68036
0.676409
0.672246
0.667815
0.663062
0.657925
0.652336
0.646222
0.639499
0.632074
0.623843
0.614693
0.604505
0.59317
0.580613
0.56681
0.551613
0.489241
0.756214
0.75249
0.748729
0.744872
0.740864
0.736655
0.732192
0.727422
0.722288
0.71673
0.710682
0.704072
0.696824
0.688857
0.680088
0.670439
0.659844
0.648264
0.635691
0.622043
0.424596
0.820894
0.817174
0.813403
0.809534
0.805522
0.801318
0.796876
0.792146
0.787076
0.781614
0.775703
0.769283
0.762294
0.754673
0.746365
0.737318
0.727502
0.716908
0.70556
0.693443
0.489241
0.885589
0.881911
0.878174
0.87434
0.87037
0.86622
0.861847
0.857208
0.852257
0.846948
0.841233
0.835064
0.828393
0.821178
0.813379
0.804969
0.795939
0.786304
0.776111
0.765368
0.424596
0.95031
0.946705
0.943041
0.939284
0.935397
0.931344
0.927085
0.922582
0.917796
0.912687
0.907216
0.901345
0.895039
0.888265
0.881003
0.87324
0.864983
0.856258
0.847122
0.837585
0.359951
1.01506
1.01156
1.008
1.00436
1.00059
0.996673
0.992567
0.988239
0.983658
0.978789
0.9736
0.968063
0.96215
0.955843
0.949129
0.942007
0.934493
0.926622
0.918448
0.909972
0.424596
1.07984
1.07647
1.07305
1.06955
1.06594
1.06219
1.05827
1.05415
1.04981
1.04521
1.04033
1.03515
1.02966
1.02383
1.01766
1.01117
1.00436
0.997286
0.989989
0.982459
0.359951
1.14464
1.14144
1.13818
1.13485
1.13143
1.12787
1.12417
1.12029
1.11621
1.11191
1.10737
1.10257
1.0975
1.09215
1.08652
1.08064
1.07451
1.06817
1.06167
1.055
0.295307
1.20947
1.20645
1.20339
1.20026
1.19704
1.19371
1.19025
1.18663
1.18284
1.17885
1.17466
1.17025
1.16561
1.16074
1.15565
1.15035
1.14486
1.13921
1.13345
1.12755
0.359951
1.27432
1.27151
1.26866
1.26575
1.26276
1.25968
1.25648
1.25314
1.24965
1.246
1.24217
1.23816
1.23396
1.22957
1.22499
1.22025
1.21537
1.21037
1.20529
1.20009
0.295307
1.33919
1.33661
1.33399
1.33132
1.32859
1.32576
1.32284
1.3198
1.31663
1.31333
1.30987
1.30626
1.30249
1.29857
1.2945
1.2903
1.28599
1.2816
1.27715
1.27261
0.230662
1.40408
1.40174
1.39938
1.39696
1.39449
1.39195
1.38932
1.38659
1.38376
1.3808
1.37772
1.37452
1.37118
1.36772
1.36414
1.36047
1.3567
1.35288
1.34903