/*--------------------------------*- C++ -*----------------------------------*\
| =========                 |                                                 |
| \\      /  F ield         | OpenFOAM: The Open Source CFD Toolbox           |
|  \\    /   O peration     | Version:  2512                                  |
|   \\  /    A nd           | Website:  www.openfoam.com                      |
|    \\/     M anipulation  |                                                 |
\*---------------------------------------------------------------------------*/
FoamFile
{
    version     2.0;
    format      ascii;
    arch        "LSB;label=32;scalar=64";
    class       volVectorField;
    location    "0";
    object      U;
}
// * * * * * * * * * * * * * * * * * * * * * * * * * * * * * * * * * * * * * //

dimensions      [0 1 -1 0 0 0 0];

internalField   nonuniform List<vector> 
2000
(
(1.12578 -0.948244 7.9791e-20)
(1.11404 -0.789622 0)
(1.10488 -0.667298 1.40937e-20)
(1.09761 -0.570931 1.2176e-26)
(1.09175 -0.493611 -4.10494e-20)
(1.08697 -0.430581 3.71083e-20)
(1.08301 -0.378479 -4.95722e-20)
(1.07971 -0.334878 -5.28009e-20)
(1.07695 -0.298004 0)
(1.07462 -0.266568 5.36828e-20)
(1.27426 -0.925534 8.51121e-20)
(1.23799 -0.770597 4.3713e-21)
(1.20998 -0.651138 0)
(1.18791 -0.557041 0)
(1.17023 -0.481553 0)
(1.15585 -0.420023 6.24336e-20)
(1.14401 -0.36917 -1.07292e-19)
(1.13416 -0.326622 -4.83174e-20)
(1.12588 -0.290635 1.09464e-19)
(1.11885 -0.259901 1.08242e-19)
(1.41745 -0.879969 9.04419e-20)
(1.35751 -0.732546 8.34955e-20)
(1.3113 -0.618899 0)
(1.27495 -0.529393 5.93888e-20)
(1.24586 -0.457595 3.6754e-20)
(1.22223 -0.399079 -3.76449e-20)
(1.2028 -0.350716 -4.35091e-20)
(1.18663 -0.31025 4.35082e-20)
(1.17305 -0.276013 1.68055e-19)
(1.16152 -0.246756 4.77199e-20)
(1.55181 -0.812632 9.47447e-20)
(1.46963 -0.676376 1.74718e-19)
(1.40633 -0.571355 0)
(1.35657 -0.488651 7.65441e-20)
(1.31678 -0.422316 5.79214e-20)
(1.28448 -0.368254 -1.66059e-20)
(1.25792 -0.323572 0)
(1.23584 -0.28618 3.8399e-20)
(1.2173 -0.254535 3.88238e-20)
(1.2016 -0.227477 0)
(1.67399 -0.725149 -4.94415e-20)
(1.57157 -0.603446 8.77808e-20)
(1.49273 -0.509656 -4.39388e-21)
(1.43078 -0.435805 1.10174e-20)
(1.38125 -0.376574 -2.56857e-20)
(1.34106 -0.328304 5.12616e-20)
(1.30803 -0.288408 1.54881e-20)
(1.28058 -0.255019 -1.82045e-20)
(1.25755 -0.226756 -4.89448e-20)
(1.23805 -0.202584 -3.14556e-21)
(1.78096 -0.619651 -5.19764e-20)
(1.66081 -0.515537 -2.47098e-21)
(1.56834 -0.43531 -3.64366e-21)
(1.49572 -0.372146 -4.56854e-21)
(1.43766 -0.321489 -4.99606e-20)
(1.39057 -0.280208 6.40826e-20)
(1.35188 -0.24609 0)
(1.31973 -0.217535 5.37801e-22)
(1.29277 -0.193365 -3.49452e-20)
(1.26996 -0.172693 3.35934e-20)
(1.87004 -0.498729 0)
(1.73511 -0.414803 -4.83554e-20)
(1.6313 -0.350141 2.86789e-21)
(1.54978 -0.299235 -3.91434e-20)
(1.48463 -0.258412 4.07641e-20)
(1.43179 -0.225146 3.8795e-20)
(1.38838 -0.197654 -3.78429e-20)
(1.35232 -0.174647 3.63235e-20)
(1.32208 -0.155174 -1.09121e-20)
(1.29651 -0.138521 -4.68981e-20)
(1.93899 -0.365363 -2.70232e-22)
(1.79262 -0.303728 -4.91684e-20)
(1.68002 -0.256244 -2.07184e-21)
(1.59161 -0.218864 -2.67609e-20)
(1.52097 -0.188891 4.12821e-20)
(1.46368 -0.164468 3.36756e-21)
(1.41662 -0.144287 -3.82495e-20)
(1.37753 -0.1274 3.89743e-21)
(1.34475 -0.113111 3.20542e-20)
(1.31704 -0.100894 -3.46361e-20)
(1.9861 -0.222852 8.22389e-23)
(1.8319 -0.185053 -1.24736e-20)
(1.71331 -0.155935 0)
(1.62019 -0.133014 2.19693e-20)
(1.54579 -0.114636 0)
(1.48545 -0.0996646 9.0629e-21)
(1.43589 -0.0872956 -1.08588e-20)
(1.39473 -0.0769495 0)
(1.36022 -0.068199 9.22507e-21)
(1.33104 -0.0607231 8.92167e-21)
(2.01018 -0.0747321 0)
(1.85198 -0.0617177 -1.25436e-20)
(1.73031 -0.0516925 0)
(1.63479 -0.0438018 0)
(1.55847 -0.0374767 0)
(1.49657 -0.0323267 1.01271e-20)
(1.44573 -0.0280763 -9.7814e-21)
(1.40351 -0.024527 2.07308e-22)
(1.3681 -0.0215321 9.47167e-21)
(1.33817 -0.018982 -9.27739e-21)
(0.101314 -0.0742833 0)
(0.25807 -0.0619105 5.55434e-22)
(0.378663 -0.0523573 0)
(0.473357 -0.0448244 0)
(0.549012 -0.038776 0)
(0.610357 -0.0338427 -5.53123e-22)
(0.660737 -0.0297632 5.52349e-22)
(0.702571 -0.0263487 -4.75012e-21)
(0.737646 -0.0234609 -5.53905e-21)
(0.767308 -0.0209987 5.73969e-21)
(0.124592 -0.221043 -6.6236e-22)
(0.277533 -0.184223 1.39205e-21)
(0.395185 -0.155794 0)
(0.487565 -0.133377 -2.81902e-21)
(0.561369 -0.115379 0)
(0.621211 -0.100698 -1.01053e-21)
(0.670353 -0.0885579 9.54642e-22)
(0.711155 -0.0783941 0)
(0.745353 -0.0697921 -8.67746e-22)
(0.774246 -0.0624423 -1.64384e-21)
(0.170589 -0.362427 1.30924e-21)
(0.31599 -0.302044 9.96017e-21)
(0.42783 -0.255427 1.00228e-20)
(0.515637 -0.218669 3.01088e-20)
(0.585784 -0.189157 -8.69202e-21)
(0.642657 -0.165085 -1.62116e-20)
(0.689359 -0.145178 2.57467e-20)
(0.728135 -0.12851 -8.05359e-28)
(0.760638 -0.114396 1.1788e-20)
(0.78811 -0.102321 8.62841e-20)
(0.2382 -0.494991 0)
(0.372514 -0.4125 1.3229e-20)
(0.475806 -0.34882 -9.84613e-21)
(0.556893 -0.298611 -9.36863e-22)
(0.621662 -0.258302 -1.07414e-20)
(0.674171 -0.225426 -1.14579e-20)
(0.717288 -0.198238 9.76346e-21)
(0.753086 -0.175474 -1.08313e-20)
(0.783096 -0.156201 4.00733e-20)
(0.808467 -0.139716 4.89237e-20)
(0.325799 -0.615498 2.13032e-20)
(0.445738 -0.51289 6.5233e-21)
(0.537953 -0.433686 9.61136e-21)
(0.610329 -0.371245 1.20377e-20)
(0.668131 -0.321117 4.29273e-20)
(0.714985 -0.280237 3.459e-21)
(0.753454 -0.246432 0)
(0.785392 -0.218133 1.40753e-21)
(0.812167 -0.194177 1.18082e-20)
(0.834804 -0.173692 6.53887e-20)
(0.431273 -0.720997 2.25285e-20)
(0.533893 -0.60075 -3.5832e-20)
(0.612764 -0.507944 9.3193e-21)
(0.674648 -0.434784 -2.33456e-20)
(0.724059 -0.376058 1.69276e-20)
(0.764101 -0.328169 1.40254e-20)
(0.796972 -0.288573 0)
(0.824257 -0.255429 -1.98354e-20)
(0.847129 -0.227379 -4.71276e-21)
(0.866469 -0.203401 -1.40811e-20)
(0.552073 -0.808892 -5.30256e-20)
(0.634841 -0.673919 -9.73067e-20)
(0.698421 -0.569762 0)
(0.748285 -0.487664 -4.37356e-20)
(0.788083 -0.421768 -1.57141e-20)
(0.820323 -0.368037 2.90511e-20)
(0.846777 -0.323613 0)
(0.868727 -0.286434 -6.7004e-20)
(0.88712 -0.254977 -7.31747e-20)
(0.902674 -0.228099 0)
(0.685271 -0.877004 -5.99467e-20)
(0.746131 -0.730584 -6.65305e-20)
(0.79284 -0.617612 -1.71355e-20)
(0.829447 -0.528576 -2.64584e-20)
(0.858644 -0.457117 -2.05142e-20)
(0.882281 -0.398852 0)
(0.90166 -0.350681 4.41102e-20)
(0.917719 -0.310367 0)
(0.93115 -0.276262 -1.48231e-19)
(0.942482 -0.247144 -7.00763e-20)
(0.82763 -0.923631 -6.50938e-20)
(0.865051 -0.769333 0)
(0.893719 -0.650302 0)
(0.916153 -0.556503 0)
(0.934022 -0.481226 0)
(0.94847 -0.419849 -5.06993e-20)
(0.960297 -0.369101 1.03775e-19)
(0.970072 -0.326618 6.06727e-20)
(0.978187 -0.290659 -1.07694e-19)
(0.984872 -0.259934 -1.11798e-19)
(0.975674 -0.947588 -7.34114e-20)
(0.988696 -0.789185 0)
(0.99859 -0.667009 -1.52071e-20)
(1.00628 -0.570743 1.12438e-26)
(1.01237 -0.493494 4.4281e-20)
(1.01727 -0.430511 -2.89078e-20)
(1.02127 -0.37843 5.34582e-20)
(1.02459 -0.334808 5.69331e-20)
(1.02742 -0.297816 0)
(1.02993 -0.266016 -4.72259e-20)
(0.79165 -0.0182741 5.34513e-21)
(0.813222 -0.0155825 -5.50333e-21)
(0.831769 -0.0133701 -5.62946e-21)
(0.847798 -0.0115181 0)
(0.861699 -0.00995313 0)
(0.873787 -0.00861933 5.91698e-21)
(0.884317 -0.0074733 1.1978e-20)
(0.893496 -0.00648087 1.21033e-20)
(0.901495 -0.0056147 1.22123e-20)
(0.908454 -0.00485273 6.15177e-21)
(0.914489 -0.004177 -3.0976e-21)
(0.919697 -0.00357274 -3.11528e-21)
(0.924155 -0.00302773 -3.48204e-24)
(0.927931 -0.00253174 3.14359e-21)
(0.931077 -0.00207608 3.15427e-21)
(0.933638 -0.00165328 -4.70825e-24)
(0.935647 -0.00125684 -1.585e-21)
(0.937131 -0.000880917 -1.58752e-21)
(0.938109 -0.000520283 0)
(0.938594 -0.000169869 0)
(0.79757 -0.0543746 3.12308e-23)
(0.818054 -0.0464244 0)
(0.835786 -0.0398735 -2.24273e-20)
(0.85119 -0.0343728 1.76062e-23)
(0.864604 -0.0297167 2.32781e-20)
(0.876307 -0.0257438 -2.15931e-23)
(0.886528 -0.0223274 2.86605e-23)
(0.895459 -0.0193671 -1.05453e-23)
(0.903257 -0.0167822 0)
(0.910053 -0.0145073 6.33347e-24)
(0.915954 -0.0124891 -1.8548e-24)
(0.921052 -0.0106838 0)
(0.925421 -0.00905514 6.26372e-21)
(0.929122 -0.00757266 -1.88779e-24)
(0.932208 -0.00621054 -6.31074e-21)
(0.934719 -0.00494646 -1.92599e-24)
(0.936689 -0.00376096 0)
(0.938142 -0.00263662 0)
(0.939097 -0.0015577 0)
(0.939566 -0.00050902 -2.27407e-23)
(0.809558 -0.0892302 1.48847e-23)
(0.827948 -0.0763026 -8.68602e-20)
(0.844052 -0.0656432 2.18075e-23)
(0.858179 -0.0566544 4.53368e-20)
(0.870582 -0.0490248 8.72039e-24)
(0.88148 -0.0425016 -2.35809e-20)
(0.891057 -0.0368836 -2.37596e-20)
(0.899468 -0.0320095 0)
(0.906844 -0.027749 -1.51432e-23)
(0.913295 -0.0239961 0)
(0.918914 -0.0206641 9.19899e-24)
(0.92378 -0.0176817 2.5028e-24)
(0.927957 -0.0149899 7.20868e-24)
(0.931502 -0.0125388 0)
(0.934459 -0.0102859 1.54043e-23)
(0.936867 -0.00819455 1.9031e-23)
(0.938753 -0.00623254 0)
(0.940142 -0.00437101 2.5622e-23)
(0.94105 -0.00258378 2.86809e-23)
(0.941486 -0.000845628 9.42133e-24)
(0.827171 -0.122095 0)
(0.842477 -0.104598 -1.47563e-22)
(0.856204 -0.0901831 4.38392e-20)
(0.868457 -0.0779649 -1.90511e-22)
(0.879376 -0.067557 -4.55857e-20)
(0.889091 -0.0586331 -6.80752e-23)
(0.897718 -0.05093 4.19055e-23)
(0.905362 -0.0442338 0)
(0.912115 -0.0383704 2.42164e-20)
(0.918057 -0.0331981 2.43957e-20)
(0.923259 -0.0286006 -1.60088e-23)
(0.927781 -0.024482 -2.49077e-20)
(0.931676 -0.0207621 -2.50179e-20)
(0.934988 -0.0173731 -1.25811e-20)
(0.937756 -0.0142567 2.64296e-23)
(0.940011 -0.0113625 1.27071e-20)
(0.941777 -0.00864587 6.37273e-21)
(0.943073 -0.0060668 6.40514e-21)
(0.943913 -0.00358889 3.15701e-21)
(0.944304 -0.00117705 3.23018e-21)
(0.850005 -0.152211 8.11873e-20)
(0.861311 -0.130733 0)
(0.87197 -0.113043 3.0292e-22)
(0.881797 -0.0979495 0)
(0.890791 -0.0850307 4.56858e-20)
(0.898969 -0.0739111 4.5856e-20)
(0.906362 -0.0642807 4.71944e-20)
(0.913008 -0.0558849 -1.4064e-22)
(0.918947 -0.0485158 2.28997e-22)
(0.924223 -0.0420027 -2.75565e-22)
(0.928878 -0.0362052 -4.90849e-20)
(0.932949 -0.031006 1.94799e-23)
(0.936474 -0.0263064 0)
(0.939484 -0.0220221 2.5227e-20)
(0.942006 -0.0180801 2.53137e-20)
(0.944064 -0.0144169 1.27049e-20)
(0.945675 -0.0109762 -1.88933e-23)
(0.946854 -0.00770716 -6.45654e-21)
(0.947609 -0.00456345 3.06958e-21)
(0.947948 -0.0015005 -3.21108e-21)
(0.877532 -0.178876 7.98873e-20)
(0.884027 -0.154175 8.15235e-20)
(0.89101 -0.133804 3.71491e-22)
(0.89792 -0.116284 0)
(0.904594 -0.101191 -4.428e-20)
(0.910916 -0.0881288 -9.06082e-20)
(0.916811 -0.0767634 5.69121e-22)
(0.92224 -0.0668167 4.69785e-20)
(0.927184 -0.05806 0)
(0.931644 -0.0503031 0)
(0.935628 -0.0433872 4.92349e-20)
(0.93915 -0.0371776 4.94691e-20)
(0.942225 -0.0315594 0)
(0.944868 -0.0264334 2.90012e-24)
(0.947095 -0.0217136 0)
(0.948916 -0.0173243 -2.83225e-23)
(0.950344 -0.0131981 0)
(0.951385 -0.00927434 -5.58131e-23)
(0.952046 -0.00549705 -6.86669e-23)
(0.952328 -0.00181262 0)
(0.909112 -0.201453 -6.08485e-22)
(0.910125 -0.174448 5.08214e-22)
(0.912935 -0.152101 -4.4101e-22)
(0.916519 -0.132687 3.74962e-22)
(0.920532 -0.115812 -3.17476e-22)
(0.924706 -0.101097 0)
(0.928856 -0.0882165 2.2333e-22)
(0.932859 -0.076891 1.84644e-22)
(0.936638 -0.0668861 -4.76822e-20)
(0.940144 -0.058001 -4.77335e-20)
(0.943348 -0.0500642 -9.29247e-23)
(0.946231 -0.0429274 -6.85168e-23)
(0.948786 -0.0364625 4.64117e-23)
(0.951007 -0.0305581 -2.52755e-20)
(0.952893 -0.0251165 -2.53684e-20)
(0.954445 -0.0200516 9.6346e-24)
(0.955666 -0.0152861 0)
(0.956555 -0.0107499 -4.1312e-23)
(0.957114 -0.00637849 6.53825e-21)
(0.957341 -0.00210957 6.41377e-21)
(0.943955 -0.219394 -6.66422e-22)
(0.939026 -0.191173 0)
(0.937317 -0.167641 7.92474e-20)
(0.937261 -0.146924 8.12541e-20)
(0.938312 -0.128692 -3.59658e-22)
(0.940067 -0.112643 0)
(0.942241 -0.0984936 2.57053e-22)
(0.944634 -0.0859874 2.14498e-22)
(0.9471 -0.0748953 -1.76726e-22)
(0.949535 -0.0650145 1.43061e-22)
(0.951865 -0.0561669 -1.12903e-22)
(0.954035 -0.0481959 -4.95608e-20)
(0.956008 -0.0409643 -9.97282e-20)
(0.957758 -0.0343515 -5.02455e-20)
(0.959266 -0.0282508 1.77457e-23)
(0.960522 -0.0225671 1.60789e-24)
(0.961515 -0.0172146 0)
(0.962242 -0.0121152 -1.30232e-20)
(0.962696 -0.00719592 -1.29619e-20)
(0.962876 -0.00238703 -7.01521e-23)
(0.981292 -0.232271 3.75959e-22)
(0.970288 -0.204114 0)
(0.96384 -0.180196 -7.69665e-20)
(0.959867 -0.158783 -7.73392e-20)
(0.957674 -0.139648 8.26924e-20)
(0.956765 -0.122615 8.35217e-20)
(0.956765 -0.107476 0)
(0.957386 -0.0940106 0)
(0.958408 -0.082009 0)
(0.959665 -0.0712764 -1.03623e-22)
(0.961032 -0.0616364 0)
(0.962417 -0.0529309 0)
(0.963751 -0.0450183 -5.00664e-20)
(0.964984 -0.0377727 -5.02739e-20)
(0.96608 -0.0310807 0)
(0.967013 -0.0248406 0)
(0.967765 -0.0189593 0)
(0.968321 -0.0133515 1.0293e-23)
(0.968673 -0.00793727 6.5582e-21)
(0.968814 -0.00264015 6.56039e-21)
(1.02234 -0.23985 3.88065e-22)
(1.00505 -0.212924 6.99598e-20)
(0.993262 -0.18939 7.02757e-20)
(0.984813 -0.167931 2.66905e-22)
(0.978923 -0.148429 7.99091e-20)
(0.975003 -0.130833 -2.45714e-21)
(0.972558 -0.115026 -1.69781e-19)
(0.97119 -0.100851 2.2184e-21)
(0.97059 -0.0881357 8.94659e-20)
(0.970524 -0.0767079 -1.12631e-22)
(0.97081 -0.0664042 0)
(0.971314 -0.0570723 0)
(0.971933 -0.0485722 4.99955e-20)
(0.972591 -0.0407761 -6.68067e-22)
(0.97323 -0.0335674 -2.51827e-20)
(0.973811 -0.0268394 2.57537e-20)
(0.9743 -0.0204937 0)
(0.974677 -0.014439 -7.07467e-24)
(0.974926 -0.00858914 0)
(0.975038 -0.00286226 0)
(1.05388 -0.230146 0)
(1.0334 -0.207477 0)
(1.01845 -0.186414 0)
(1.00719 -0.166707 0)
(0.998797 -0.148444 0)
(0.992651 -0.131681 0)
(0.988247 -0.116403 0)
(0.985173 -0.102531 0)
(0.983101 -0.0899571 0)
(0.981772 -0.0785557 0)
(0.980983 -0.0681972 0)
(0.980579 -0.0587543 0)
(0.980438 -0.0501048 0)
(0.980467 -0.0421335 0)
(0.980597 -0.0347325 0)
(0.980772 -0.0278012 0)
(0.980954 -0.0212449 0)
(0.981113 -0.0149747 0)
(0.981229 -0.0089058 0)
(0.98129 -0.00295674 0)
(1.07194 -0.207413 0)
(1.0525 -0.190289 0)
(1.03699 -0.173123 0)
(1.02474 -0.156495 0)
(1.01519 -0.140698 0)
(1.0078 -0.125891 0)
(1.00216 -0.112142 0)
(0.997895 -0.0994529 0)
(0.994717 -0.0877822 0)
(0.992381 -0.0770623 0)
(0.990691 -0.0672104 0)
(0.989493 -0.0581368 0)
(0.988663 -0.0497497 0)
(0.988103 -0.0419579 0)
(0.98774 -0.0346728 0)
(0.987513 -0.0278089 0)
(0.987378 -0.0212842 0)
(0.987304 -0.0150197 0)
(0.987266 -0.00893915 0)
(0.987251 -0.00296788 0)
(1.08635 -0.186463 0)
(1.06769 -0.173144 0)
(1.05224 -0.159296 0)
(1.03962 -0.145452 0)
(1.0294 -0.131962 0)
(1.02121 -0.119043 0)
(1.01469 -0.106822 0)
(1.00953 -0.0953567 0)
(1.00549 -0.0846571 0)
(1.00234 -0.0747012 0)
(0.999908 -0.0654455 0)
(0.998039 -0.0568332 0)
(0.996617 -0.0487995 0)
(0.995544 -0.0412758 0)
(0.994746 -0.0341919 0)
(0.994161 -0.0274776 0)
(0.993743 -0.0210634 0)
(0.993458 -0.014881 0)
(0.993281 -0.0088632 0)
(0.993197 -0.00294357 0)
(1.09731 -0.166783 0)
(1.07967 -0.156529 0)
(1.06468 -0.145463 0)
(1.05208 -0.134056 0)
(1.04159 -0.122655 0)
(1.03294 -0.111499 0)
(1.02584 -0.100748 0)
(1.02006 -0.090495 0)
(1.01537 -0.0807886 0)
(1.01159 -0.0716403 0)
(1.00856 -0.0630377 0)
(1.00614 -0.0549512 0)
(1.00422 -0.0473395 0)
(1.00271 -0.040154 0)
(1.00154 -0.0333416 0)
(1.00064 -0.0268463 0)
(0.999975 -0.020611 0)
(0.999504 -0.0145779 0)
(0.999204 -0.00868908 0)
(0.999058 -0.00288677 0)
(1.10545 -0.148506 0)
(1.08901 -0.140728 0)
(1.07472 -0.131973 0)
(1.06243 -0.122657 0)
(1.05196 -0.113102 0)
(1.04311 -0.103551 0)
(1.03569 -0.0941743 0)
(1.02949 -0.0850878 0)
(1.02435 -0.0763622 0)
(1.02009 -0.0680339 0)
(1.0166 -0.0601141 0)
(1.01374 -0.0525945 0)
(1.01141 -0.0454534 0)
(1.00954 -0.0386594 0)
(1.00805 -0.0321742 0)
(1.00689 -0.0259551 0)
(1.00601 -0.0199564 0)
(1.00538 -0.0141304 0)
(1.00497 -0.0084285 0)
(1.00477 -0.0028012 0)
(1.11138 -0.131714 0)
(1.0962 -0.125904 0)
(1.08275 -0.119045 0)
(1.07095 -0.111495 0)
(1.0607 -0.103547 0)
(1.05187 -0.0954282 0)
(1.04431 -0.0873114 0)
(1.03787 -0.07932 0)
(1.03243 -0.0715385 0)
(1.02784 -0.0640194 0)
(1.024 -0.0567903 0)
(1.0208 -0.0498594 0)
(1.01816 -0.0432204 0)
(1.01599 -0.036856 0)
(1.01424 -0.0307408 0)
(1.01286 -0.0248436 0)
(1.0118 -0.019129 0)
(1.01103 -0.013559 0)
(1.01053 -0.00809332 0)
(1.01029 -0.00269074 0)
(1.1156 -0.116397 0)
(1.10168 -0.11213 0)
(1.08912 -0.106807 0)
(1.07792 -0.100732 0)
(1.06803 -0.0941618 0)
(1.05935 -0.0873042 0)
(1.0518 -0.0803231 0)
(1.04527 -0.0733424 0)
(1.03965 -0.0664524 0)
(1.03484 -0.0597149 0)
(1.03076 -0.0531682 0)
(1.02731 -0.0468324 0)
(1.02442 -0.0407129 0)
(1.02202 -0.0348034 0)
(1.02007 -0.0290894 0)
(1.0185 -0.0235493 0)
(1.0173 -0.0181572 0)
(1.01642 -0.0128831 0)
(1.01584 -0.00769506 0)
(1.01556 -0.00255919 0)
(1.11851 -0.102483 0)
(1.10579 -0.0994111 0)
(1.09415 -0.0953206 0)
(1.08359 -0.0904649 0)
(1.07413 -0.0850643 0)
(1.06571 -0.0793039 0)
(1.05827 -0.0733343 0)
(1.05174 -0.0672742 0)
(1.04605 -0.061214 0)
(1.04112 -0.0552194 0)
(1.03688 -0.0493353 0)
(1.03326 -0.0435893 0)
(1.03018 -0.0379952 0)
(1.02761 -0.0325555 0)
(1.0255 -0.0272639 0)
(1.02379 -0.0221072 0)
(1.02247 -0.0170671 0)
(1.02149 -0.0121213 0)
(1.02086 -0.00724461 0)
(1.02054 -0.00241014 0)
(1.12044 -0.0898687 0)
(1.10884 -0.087711 0)
(1.09807 -0.0845996 0)
(1.08818 -0.0807427 0)
(1.07919 -0.0763268 0)
(1.07108 -0.0715128 0)
(1.06383 -0.0664359 0)
(1.05739 -0.0612061 0)
(1.0517 -0.05591 0)
(1.04672 -0.0506135 0)
(1.04239 -0.0453641 0)
(1.03865 -0.0401942 0)
(1.03545 -0.035123 0)
(1.03275 -0.0301594 0)
(1.03051 -0.0253034 0)
(1.0287 -0.0205486 0)
(1.02728 -0.0158829 0)
(1.02624 -0.0112903 0)
(1.02555 -0.00675194 0)
(1.02521 -0.0022469 0)
(1.12165 -0.0784314 0)
(1.11106 -0.0769645 0)
(1.10111 -0.074624 0)
(1.09187 -0.0715797 0)
(1.08336 -0.0679872 0)
(1.0756 -0.0639845 0)
(1.06858 -0.0596905 0)
(1.06227 -0.0552043 0)
(1.05665 -0.0506065 0)
(1.05167 -0.0459603 0)
(1.0473 -0.0413135 0)
(1.0435 -0.0367002 0)
(1.04022 -0.0321433 0)
(1.03743 -0.0276555 0)
(1.03511 -0.0232419 0)
(1.03321 -0.0189008 0)
(1.03172 -0.0146254 0)
(1.03063 -0.010405 0)
(1.0299 -0.00622595 0)
(1.02954 -0.00207244 0)
(1.12232 -0.0680452 0)
(1.11265 -0.0670914 0)
(1.10346 -0.0653523 0)
(1.09482 -0.0629648 0)
(1.08678 -0.0600577 0)
(1.07938 -0.0567476 0)
(1.07261 -0.0531372 0)
(1.06647 -0.0493141 0)
(1.06095 -0.0453513 0)
(1.05601 -0.0413077 0)
(1.05165 -0.0372292 0)
(1.04782 -0.03315 0)
(1.0445 -0.0290943 0)
(1.04165 -0.0250775 0)
(1.03927 -0.0211078 0)
(1.03732 -0.0171872 0)
(1.03578 -0.0133129 0)
(1.03464 -0.00947848 0)
(1.03388 -0.0056744 0)
(1.03351 -0.00188931 0)
(1.12263 -0.0585842 0)
(1.11376 -0.0580036 0)
(1.10524 -0.0567288 0)
(1.09716 -0.0548696 0)
(1.08958 -0.0525313 0)
(1.08252 -0.0498111 0)
(1.07601 -0.0467964 0)
(1.07006 -0.0435635 0)
(1.06465 -0.040177 0)
(1.05979 -0.0366901 0)
(1.05546 -0.0331456 0)
(1.05163 -0.0295763 0)
(1.04829 -0.0260064 0)
(1.04542 -0.0224525 0)
(1.043 -0.0189245 0)
(1.04101 -0.0154272 0)
(1.03943 -0.0119607 0)
(1.03826 -0.00852154 0)
(1.03749 -0.00510385 0)
(1.0371 -0.00169973 0)
(1.12268 -0.049927 0)
(1.11451 -0.04961 0)
(1.10659 -0.0486898 0)
(1.09901 -0.0472536 0)
(1.09184 -0.0453865 0)
(1.08511 -0.0431689 0)
(1.07885 -0.0406739 0)
(1.07309 -0.0379665 0)
(1.06782 -0.0351029 0)
(1.06305 -0.0321301 0)
(1.05876 -0.0290867 0)
(1.05496 -0.0260032 0)
(1.05162 -0.0229025 0)
(1.04874 -0.0198014 0)
(1.04629 -0.0167107 0)
(1.04428 -0.0136365 0)
(1.04268 -0.010581 0)
(1.04149 -0.00754317 0)
(1.04071 -0.00451971 0)
(1.04031 -0.0015055 0)
(1.12258 -0.0419582 0)
(1.11499 -0.0418194 0)
(1.1076 -0.0411667 0)
(1.10047 -0.0400683 0)
(1.09366 -0.0385924 0)
(1.08723 -0.0368041 0)
(1.08121 -0.0347638 0)
(1.07563 -0.0325258 0)
(1.07049 -0.0301379 0)
(1.06581 -0.0276407 0)
(1.06159 -0.025068 0)
(1.05782 -0.0224471 0)
(1.05449 -0.0197992 0)
(1.05161 -0.0171399 0)
(1.04916 -0.0144803 0)
(1.04714 -0.011827 0)
(1.04553 -0.00918354 0)
(1.04432 -0.00655046 0)
(1.04353 -0.0039263 0)
(1.04313 -0.00130807 0)
(1.12238 -0.0345689 0)
(1.1153 -0.0345429 0)
(1.10834 -0.0340892 0)
(1.10159 -0.0332606 0)
(1.0951 -0.0321107 0)
(1.08894 -0.0306913 0)
(1.08313 -0.0290513 0)
(1.07771 -0.0272351 0)
(1.0727 -0.0252822 0)
(1.06812 -0.0232267 0)
(1.06396 -0.0210975 0)
(1.06023 -0.0189181 0)
(1.05693 -0.0167071 0)
(1.05406 -0.0144788 0)
(1.05161 -0.0122435 0)
(1.04958 -0.0100078 0)
(1.04796 -0.0077757 0)
(1.04675 -0.00554883 0)
(1.04595 -0.00332695 0)
(1.04555 -0.00110857 0)
(1.12215 -0.0276573 0)
(1.11547 -0.0276942 0)
(1.10888 -0.0273865 0)
(1.10244 -0.0267742 0)
(1.09623 -0.0258983 0)
(1.09029 -0.0247991 0)
(1.08467 -0.0235149 0)
(1.0794 -0.022081 0)
(1.0745 -0.020529 0)
(1.06999 -0.0188865 0)
(1.06589 -0.0171772 0)
(1.06221 -0.0154206 0)
(1.05893 -0.0136324 0)
(1.05608 -0.0118249 0)
(1.05363 -0.0100069 0)
(1.0516 -0.0081849 0)
(1.04999 -0.00636265 0)
(1.04877 -0.00454221 0)
(1.04797 -0.0027241 0)
(1.04756 -0.000907809 0)
(1.12192 -0.0211276 0)
(1.11557 -0.0211902 0)
(1.10926 -0.0209884 0)
(1.10308 -0.0205513 0)
(1.09708 -0.0199092 0)
(1.09132 -0.0190919 0)
(1.08585 -0.0181283 0)
(1.0807 -0.017045 0)
(1.0759 -0.0158662 0)
(1.07147 -0.0146131 0)
(1.06742 -0.0133041 0)
(1.06377 -0.0119546 0)
(1.06052 -0.0105771 0)
(1.05768 -0.00918123 0)
(1.05525 -0.00777452 0)
(1.05322 -0.00636222 0)
(1.0516 -0.0049478 0)
(1.05039 -0.00353326 0)
(1.04958 -0.00211943 0)
(1.04918 -0.000706376 0)
(1.12173 -0.0148895 0)
(1.11561 -0.0149507 0)
(1.10952 -0.0148254 0)
(1.10352 -0.0145334 0)
(1.09769 -0.0140951 0)
(1.09207 -0.0135311 0)
(1.08671 -0.0128614 0)
(1.08166 -0.0121045 0)
(1.07693 -0.0112776 0)
(1.07256 -0.0103956 0)
(1.06855 -0.00947163 0)
(1.06493 -0.00851675 0)
(1.06171 -0.00753997 0)
(1.05888 -0.00654846 0)
(1.05645 -0.0055477 0)
(1.05443 -0.00454167 0)
(1.05281 -0.00353307 0)
(1.0516 -0.00252357 0)
(1.05079 -0.001514 0)
(1.05039 -0.000504633 0)
(1.1216 -0.00885689 0)
(1.11563 -0.00889771 0)
(1.10968 -0.0088292 0)
(1.10381 -0.00866166 0)
(1.09808 -0.00840663 0)
(1.09256 -0.00807604 0)
(1.08728 -0.00768155 0)
(1.08228 -0.00723416 0)
(1.07761 -0.00674398 0)
(1.07327 -0.00621999 0)
(1.0693 -0.00567005 0)
(1.0657 -0.00510076 0)
(1.06249 -0.00451761 0)
(1.05967 -0.00392495 0)
(1.05725 -0.00332614 0)
(1.05524 -0.00272367 0)
(1.05362 -0.00211924 0)
(1.05241 -0.00151394 0)
(1.0516 -0.000908373 0)
(1.0512 -0.000302784 0)
(1.12153 -0.00294068 0)
(1.11564 -0.00295408 0)
(1.10975 -0.00293213 0)
(1.10395 -0.0028775 0)
(1.09827 -0.00279379 0)
(1.0928 -0.00268488 0)
(1.08756 -0.0025546 0)
(1.08259 -0.00240659 0)
(1.07794 -0.00224419 0)
(1.07363 -0.0020704 0)
(1.06967 -0.00188782 0)
(1.06609 -0.00169866 0)
(1.06288 -0.00150477 0)
(1.06007 -0.00130759 0)
(1.05765 -0.00110827 0)
(1.05564 -0.000907643 0)
(1.05402 -0.000706293 0)
(1.05281 -0.000504599 0)
(1.05201 -0.000302777 0)
(1.0516 -0.000100925 0)
(1.31171 -0.0163233 -1.34935e-21)
(1.30562 -0.0529061 1.10471e-21)
(1.29361 -0.0881936 1.5727e-21)
(1.27596 -0.121381 4.31153e-21)
(1.25308 -0.151708 8.46158e-21)
(1.22547 -0.17847 -6.9516e-20)
(1.19376 -0.201035 0)
(1.15869 -0.218851 0)
(1.12111 -0.231417 1.895e-21)
(1.08341 -0.241335 1.83096e-21)
(1.29005 -0.0136326 2.19679e-22)
(1.28503 -0.0449585 0)
(1.27511 -0.0752798 1.49816e-20)
(1.26052 -0.103983 -2.1313e-21)
(1.24162 -0.130497 0)
(1.21882 -0.154301 -3.35939e-20)
(1.19263 -0.174939 4.10995e-20)
(1.16358 -0.191993 -3.92563e-21)
(1.13213 -0.204864 0)
(1.09888 -0.216427 -5.69846e-20)
(1.27136 -0.01141 2.30211e-22)
(1.26719 -0.038352 2.45218e-21)
(1.25892 -0.0645061 -1.51673e-21)
(1.24672 -0.0893958 -1.32987e-20)
(1.23089 -0.112574 4.15856e-21)
(1.21174 -0.13363 4.0918e-21)
(1.18969 -0.152188 4.31622e-20)
(1.16514 -0.167903 -4.59265e-20)
(1.13859 -0.180288 4.94142e-20)
(1.11036 -0.192074 -6.16955e-20)
(1.25518 -0.00956479 0)
(1.25168 -0.0328216 1.8589e-22)
(1.2447 -0.0554504 -1.23259e-20)
(1.23441 -0.0770768 -8.45244e-22)
(1.22103 -0.0973474 0)
(1.20483 -0.115931 0)
(1.18613 -0.132517 4.00683e-21)
(1.16529 -0.14684 -4.3991e-20)
(1.14274 -0.158566 5.54891e-20)
(1.11866 -0.169866 1.89196e-21)
(1.24111 -0.00802446 0)
(1.23814 -0.0281582 -3.66762e-22)
(1.2322 -0.047784 -4.05454e-21)
(1.22341 -0.0666027 1.33262e-20)
(1.21198 -0.0843277 8.19504e-21)
(1.19812 -0.100685 2.01551e-20)
(1.18212 -0.115423 -3.99466e-21)
(1.1643 -0.128357 -3.93323e-21)
(1.14501 -0.139258 -4.83873e-20)
(1.12439 -0.149738 -5.33048e-20)
(1.22885 -0.00673251 -1.90311e-22)
(1.22631 -0.0241978 -2.07662e-21)
(1.22119 -0.0412466 -5.63769e-22)
(1.21361 -0.0576353 -2.05347e-21)
(1.20373 -0.0731266 0)
(1.19176 -0.0874938 3.20426e-20)
(1.17795 -0.100543 0)
(1.16258 -0.112147 0)
(1.14595 -0.122128 -5.00511e-20)
(1.12817 -0.131651 -3.99037e-21)
(1.21815 -0.00564445 6.56079e-22)
(1.21596 -0.0208115 3.08896e-21)
(1.21151 -0.0356324 3.68475e-21)
(1.20489 -0.0499059 2.03787e-21)
(1.19627 -0.0634345 -3.89186e-21)
(1.18583 -0.0760341 5.32017e-21)
(1.1738 -0.087557 3.96872e-21)
(1.16042 -0.0979056 3.92258e-21)
(1.14596 -0.10693 0)
(1.1305 -0.115465 1.01495e-19)
(1.20881 -0.00472488 -1.37741e-21)
(1.2069 -0.0178967 -1.02214e-21)
(1.20298 -0.0307778 0)
(1.19715 -0.0432005 0)
(1.18955 -0.0550013 -1.23424e-20)
(1.18036 -0.0660323 -1.49885e-20)
(1.16978 -0.0761783 3.95604e-21)
(1.15803 -0.0853545 3.91549e-21)
(1.14533 -0.0934307 0)
(1.13179 -0.101005 4.25621e-21)
(1.20066 -0.00394541 -3.30112e-22)
(1.19898 -0.0153715 8.9367e-22)
(1.1955 -0.0265519 -2.02389e-21)
(1.19031 -0.0373466 -2.07582e-21)
(1.18355 -0.0476212 -6.45067e-21)
(1.17537 -0.0572565 0)
(1.16597 -0.0661581 1.09877e-20)
(1.15555 -0.0742476 -3.90799e-21)
(1.14429 -0.0814131 0)
(1.13232 -0.0880802 -4.71409e-20)
(1.19355 -0.00328304 8.50315e-22)
(1.19206 -0.01317 1.92669e-21)
(1.18895 -0.0228486 0)
(1.18429 -0.0322029 -8.21008e-21)
(1.17821 -0.0411223 -5.10455e-21)
(1.17087 -0.0495098 -3.96113e-21)
(1.16243 -0.0572843 1.5337e-20)
(1.15309 -0.0643726 3.90045e-21)
(1.14301 -0.0706808 -1.93497e-21)
(1.13233 -0.076507 -1.91677e-21)
(1.18738 -0.00271891 6.59903e-23)
(1.18605 -0.0112381 2.00875e-21)
(1.18323 -0.0195812 4.06525e-25)
(1.17901 -0.0276522 -1.99591e-21)
(1.17349 -0.0353607 9.88414e-21)
(1.16683 -0.0426259 0)
(1.15919 -0.0493766 -1.6429e-20)
(1.15072 -0.0555457 -3.89317e-21)
(1.14162 -0.0610556 0)
(1.13199 -0.0661092 0)
(1.18206 -0.00223738 -9.33912e-22)
(1.18085 -0.00953138 -1.00013e-21)
(1.17828 -0.0166774 -3.10131e-21)
(1.17441 -0.0235968 5.06209e-21)
(1.16936 -0.0302151 7.91587e-21)
(1.16326 -0.0364644 3.93648e-21)
(1.15626 -0.0422819 -1.67549e-20)
(1.14852 -0.0476076 8.97321e-21)
(1.1402 -0.0523774 0)
(1.13143 -0.0567242 0)
(1.17749 -0.00182524 9.97329e-22)
(1.17639 -0.0080125 9.96362e-22)
(1.17402 -0.0140768 -4.10101e-21)
(1.17045 -0.019954 3.89141e-21)
(1.16577 -0.025583 0)
(1.16013 -0.0309064 0)
(1.15366 -0.0358693 3.90471e-21)
(1.14651 -0.0404192 2.84143e-20)
(1.13883 -0.0445032 1.08121e-20)
(1.13077 -0.0482031 -1.60391e-20)
(1.17362 -0.00147121 -4.53615e-23)
(1.17261 -0.00664984 2.56575e-22)
(1.17041 -0.0117278 -1.00466e-21)
(1.16707 -0.0166535 1.21193e-23)
(1.16271 -0.021377 -6.92641e-21)
(1.15744 -0.0258501 -3.6288e-21)
(1.15139 -0.0300257 8.15447e-21)
(1.14472 -0.0338586 1.55247e-20)
(1.13757 -0.0373048 1.11758e-20)
(1.13006 -0.0404109 -4.30282e-21)
(1.17039 -0.00116547 9.45061e-22)
(1.16946 -0.00541623 1.46991e-21)
(1.16739 -0.00958633 -1.97687e-21)
(1.16425 -0.013635 -7.62992e-22)
(1.16014 -0.017522 -3.08596e-21)
(1.15517 -0.0212077 -7.65547e-21)
(1.14947 -0.0246524 4.39272e-21)
(1.14318 -0.0278179 3.86987e-21)
(1.13644 -0.0306678 2.64177e-21)
(1.12938 -0.0332251 5.53974e-21)
(1.16776 -0.000899396 9.89095e-22)
(1.16689 -0.00428804 1.21071e-21)
(1.16493 -0.00761408 -1.97277e-21)
(1.16195 -0.0108462 1.96708e-21)
(1.15804 -0.0139528 6.83766e-21)
(1.1533 -0.0169022 3.90457e-21)
(1.14788 -0.019662 -3.88645e-21)
(1.14189 -0.0222008 -3.86597e-21)
(1.13548 -0.0244888 4.72667e-21)
(1.12877 -0.0265341 -5.22416e-21)
(1.1657 -0.000665251 0)
(1.16487 -0.00324443 0)
(1.163 -0.00577732 0)
(1.16014 -0.00824092 -2.95668e-22)
(1.15639 -0.0106117 -2.95005e-22)
(1.15184 -0.0128652 0)
(1.14663 -0.0149764 1.06415e-21)
(1.14087 -0.0169205 0)
(1.1347 -0.0186737 0)
(1.12825 -0.020236 0)
(1.16417 -0.00045603 0)
(1.16338 -0.00226671 0)
(1.16158 -0.00404588 -1.96722e-21)
(1.15882 -0.00577797 -2.27443e-21)
(1.15518 -0.00744669 4.45755e-21)
(1.15077 -0.00903484 3.89672e-21)
(1.14571 -0.0105245 5.00313e-21)
(1.14012 -0.0118975 4.65863e-21)
(1.13413 -0.0131361 -1.92094e-21)
(1.12785 -0.0142365 -1.91029e-21)
(1.16317 -0.000265255 0)
(1.1624 -0.00133788 0)
(1.16065 -0.00239234 -1.96571e-21)
(1.15796 -0.00341968 1.91335e-21)
(1.1544 -0.00441041 7.60986e-21)
(1.15009 -0.00535428 3.89475e-21)
(1.14514 -0.00624046 -4.04674e-21)
(1.13965 -0.00705779 -2.9967e-21)
(1.13376 -0.00779511 -2.12828e-22)
(1.12758 -0.00844833 0)
(1.16267 -8.71323e-05 0)
(1.16193 -0.000443162 1.96816e-21)
(1.16021 -0.000792936 2.14419e-25)
(1.15756 -0.00113332 -2.01559e-21)
(1.15407 -0.00146105 7.00215e-23)
(1.14982 -0.00177262 -3.89419e-21)
(1.14492 -0.00206433 -1.96446e-22)
(1.13948 -0.00233242 3.85942e-21)
(1.13363 -0.00257307 -2.16846e-21)
(1.12748 -0.00278474 -1.90987e-21)
(1.07756 0.273832 5.40596e-20)
(1.08009 0.304849 0)
(1.08302 0.341326 5.25306e-20)
(1.08646 0.384558 4.93423e-20)
(1.09056 0.436326 8.30778e-20)
(1.09551 0.499064 4.08916e-20)
(1.10155 0.576142 -1.22416e-26)
(1.10907 0.672334 -1.40473e-20)
(1.11858 0.794567 0)
(1.13086 0.953216 8.01753e-20)
(1.12119 0.266801 3.07017e-21)
(1.12846 0.297175 8.51777e-21)
(1.13697 0.33281 4.79789e-20)
(1.14703 0.375018 -1.71942e-20)
(1.15907 0.425548 6.27609e-20)
(1.17367 0.486775 0)
(1.1916 0.56199 0)
(1.214 0.655848 0)
(1.24244 0.775114 -4.34982e-21)
(1.27934 0.929916 8.2128e-20)
(1.16337 0.253241 -4.72462e-20)
(1.17516 0.282192 7.74946e-20)
(1.18899 0.316117 -4.31215e-20)
(1.2054 0.356271 -8.44622e-20)
(1.22507 0.40432 3.73438e-20)
(1.24896 0.462526 1.04365e-19)
(1.27835 0.534018 8.86436e-20)
(1.31506 0.623223 0)
(1.36175 0.736575 8.38058e-20)
(1.42236 0.883705 9.07748e-20)
(1.20303 0.233523 0)
(1.219 0.260323 -4.15214e-20)
(1.2378 0.291695 -3.7981e-20)
(1.26014 0.328799 0)
(1.28695 0.373177 1.64385e-20)
(1.31953 0.42692 8.78425e-20)
(1.35963 0.492919 7.68064e-20)
(1.40977 0.575263 0)