/*--------------------------------*- C++ -*----------------------------------*\
| =========                 |                                                 |
| \\      /  F ield         | OpenFOAM: The Open Source CFD Toolbox           |
|  \\    /   O peration     | Version:  2512                                  |
|   \\  /    A nd           | Website:  www.openfoam.com                      |
|    \\/     M anipulation  |                                                 |
\*---------------------------------------------------------------------------*/
FoamFile
{
    version     2.0;
    format      ascii;
    arch        "LSB;label=32;scalar=64";
    class       volScalarField;
    location    "0";
    object      error;
}
// * * * * * * * * * * * * * * * * * * * * * * * * * * * * * * * * * * * * * //

dimensions      [0 0 0 0 0 0 0];

internalField   nonuniform List<scalar> 
2000
(
0.0184018
0.0154737
0.0102201
0.00660489
0.0166687
0.0358788
0.0647929
0.109747
0.187832
0.34987
0.0173765
0.0145599
0.00951493
0.00614159
0.0155688
0.0328223
0.0573036
0.0909929
0.135363
0.185921
0.0185231
0.0169535
0.0151708
0.0162503
0.0233721
0.036541
0.054991
0.0782144
0.105021
0.132631
0.0211573
0.0208589
0.0213269
0.0241696
0.0306556
0.0410255
0.05487
0.0715152
0.0900003
0.109067
0.024578
0.0251368
0.0268236
0.0304118
0.03645
0.04504
0.0559167
0.0686075
0.0824928
0.0968716
0.0282064
0.0292429
0.0315236
0.0353688
0.0409886
0.048378
0.0573382
0.0675428
0.0785797
0.0900014
0.0315991
0.0328641
0.0353848
0.0392394
0.0444694
0.0510114
0.058691
0.0672691
0.0764508
0.0859245
0.03443
0.0357826
0.0383657
0.0421279
0.0470232
0.0529589
0.0597781
0.0672849
0.0752552
0.0834472
0.0364881
0.0378608
0.0404276
0.0440763
0.0487196
0.054249
0.0605212
0.0673619
0.0745832
0.0819752
0.0376439
0.0390099
0.0415431
0.0451079
0.0495991
0.054902
0.0608855
0.0673866
0.0742472
0.081231
0.0830058
0.0857679
0.090958
0.0983199
0.107488
0.118145
0.129995
0.142762
0.156143
0.169847
0.0795156
0.0829551
0.0885282
0.0961624
0.105629
0.116676
0.129013
0.142359
0.156383
0.170764
0.0752558
0.0784403
0.0841108
0.0920248
0.10197
0.11373
0.127027
0.141549
0.156913
0.172719
0.0692423
0.0722848
0.0779467
0.0860843
0.0965897
0.109315
0.124022
0.140368
0.157888
0.176037
0.0617427
0.0646425
0.07021
0.0784904
0.0895632
0.103438
0.11999
0.1389
0.159618
0.18137
0.0531857
0.0558351
0.061129
0.0693948
0.0809852
0.0961588
0.115008
0.137373
0.162719
0.190002
0.044158
0.0463347
0.0510433
0.0590178
0.0710302
0.0876998
0.109451
0.13646
0.168503
0.204542
0.035394
0.036735
0.0403105
0.0475147
0.0598163
0.0784083
0.104272
0.138149
0.180423
0.230902
0.0277157
0.0277558
0.0293253
0.0348768
0.0470306
0.0679455
0.100063
0.146504
0.20987
0.289109
0.0218872
0.0202642
0.0186902
0.0210141
0.0318421
0.0535681
0.090748
0.155622
0.278022
0.530935
0.159778
0.127004
0.0940855
0.0624243
0.0346837
0.0231679
0.0395929
0.0626674
0.0851616
0.105879
0.124552
0.141144
0.155712
0.16835
0.179171
0.1883
0.195863
0.20199
0.206812
0.21046
0.15677
0.129318
0.104047
0.0835206
0.0711747
0.0696913
0.0777394
0.0910898
0.106332
0.121609
0.136039
0.149211
0.160964
0.171251
0.180101
0.187573
0.193753
0.198737
0.20263
0.20556
0.15619
0.14015
0.127893
0.120184
0.117278
0.118703
0.123449
0.130332
0.138327
0.146663
0.154823
0.162473
0.169423
0.175567
0.180864
0.185312
0.188946
0.19182
0.193993
0.195575
0.170015
0.169655
0.170049
0.170507
0.170901
0.171315
0.171861
0.172598
0.17353
0.17461
0.175765
0.176916
0.177988
0.178917
0.179657
0.180179
0.180474
0.180559
0.180451
0.180229
0.213447
0.226547
0.233621
0.235324
0.233046
0.228171
0.221837
0.214864
0.207808
0.201006
0.194647
0.188815
0.183531
0.178776
0.174514
0.1707
0.167293
0.164266
0.161593
0.15931
0.297674
0.31644
0.321326
0.316064
0.304327
0.288991
0.272087
0.254926
0.238313
0.222696
0.208306
0.195234
0.183487
0.173025
0.16378
0.15567
0.148605
0.142501
0.137264
0.132862
0.432828
0.445744
0.436263
0.413398
0.383884
0.352047
0.320431
0.290393
0.262593
0.23728
0.214492
0.194152
0.176132
0.160281
0.14644
0.134444
0.124124
0.115304
0.107786
0.101408
0.639173
0.624508
0.58063
0.525302
0.468115
0.413605
0.363598
0.318609
0.278556
0.243131
0.211947
0.184621
0.160793
0.14014
0.122359
0.107174
0.0943062
0.0834629
0.0742856
0.0663822
0.959464
0.863389
0.750222
0.64339
0.549149
0.467711
0.397601
0.337164
0.284951
0.239799
0.200771
0.167117
0.13822
0.113571
0.0927306
0.0753222
0.0610018
0.0494363
0.0402317
0.0328905
1.45882
1.15121
0.920507
0.747904
0.614343
0.507245
0.418988
0.344949
0.282174
0.228689
0.183082
0.144317
0.111599
0.0843442
0.0621684
0.0449675
0.0330714
0.0271242
0.0269299
0.0308861
0.527911
0.224947
0.109434
0.0541071
0.0246003
0.0142575
0.0193978
0.0261362
0.0311992
0.0346481
0.0368646
0.0381679
0.0388453
0.0391176
0.0392154
0.0393454
0.0397628
0.0407339
0.0426151
0.0457499
0.255955
0.158651
0.0894624
0.045343
0.0171703
0.00293284
0.014384
0.0228916
0.0287629
0.0327689
0.0354579
0.0372114
0.0383304
0.0390475
0.039579
0.0401167
0.0408635
0.0420062
0.0437325
0.0461337
0.172026
0.118228
0.07531
0.0441494
0.023944
0.0158486
0.0187469
0.0242542
0.0289845
0.0325524
0.0351329
0.0369537
0.0382399
0.039178
0.0399485
0.0407058
0.0416061
0.0427736
0.0443079
0.0462306
0.135396
0.0990165
0.0694468
0.0473537
0.0330025
0.0263855
0.0258528
0.0281597
0.0310362
0.0336164
0.0356929
0.0372951
0.0385231
0.0394999
0.0403464
0.0411819
0.0421117
0.0432257
0.0445775
0.0461785
0.115201
0.0894364
0.0679516
0.0515767
0.0405307
0.0344978
0.0323958
0.0326455
0.0339112
0.0354247
0.0368457
0.0380679
0.0390931
0.0399734
0.040779
0.0415862
0.0424656
0.0434762
0.0446532
0.0460072
0.102523
0.0837812
0.0677284
0.0551231
0.0461584
0.0405849
0.0377526
0.0367939
0.0369041
0.0375155
0.0382979
0.0390926
0.0398417
0.0405452
0.0412306
0.0419394
0.0427133
0.0435895
0.0445913
0.0457292
0.0937733
0.079787
0.0675279
0.0575787
0.0501241
0.0450303
0.041921
0.0402916
0.0396427
0.0395756
0.0398182
0.0402092
0.0406652
0.0411548
0.0416759
0.0422433
0.0428775
0.0435988
0.0444219
0.0453552
0.0872329
0.0765579
0.0670164
0.0590299
0.0527656
0.0481745
0.0450468
0.0430833
0.0419685
0.0414275
0.041251
0.0412969
0.0414781
0.041748
0.0420868
0.0424913
0.0429668
0.0435214
0.0441627
0.0448958
0.0820209
0.0737226
0.0661764
0.0596858
0.0543951
0.0503045
0.0473038
0.0452157
0.0438402
0.042989
0.0425065
0.0422765
0.0422186
0.0422824
0.042439
0.0426746
0.0429841
0.0433674
0.043826
0.044362
0.0776674
0.0711232
0.0650763
0.0597507
0.0552681
0.051654
0.0488565
0.0467726
0.0452753
0.0442367
0.0435435
0.0431039
0.0428489
0.0427302
0.0427159
0.0427867
0.0429314
0.0431442
0.0434225
0.0437652
0.0739146
0.0686941
0.0637955
0.0593911
0.0555832
0.0524086
0.0498487
0.0478454
0.0463186
0.0451819
0.0443533
0.0437621
0.0433512
0.0430774
0.0429094
0.0428257
0.0428121
0.0428595
0.0429623
0.0431174
0.0706184
0.066411
0.0624031
0.0587341
0.0554906
0.0527129
0.0504002
0.048521
0.0470251
0.0458536
0.0449476
0.0442529
0.0437234
0.0433219
0.0430196
0.0427951
0.042633
0.0425227
0.042457
0.0424313
0.0676961
0.0642662
0.0609523
0.057873
0.055102
0.0526782
0.0506088
0.0488771
0.0474508
0.0462894
0.0453497
0.0445905
0.0439747
0.0434709
0.0430538
0.0427033
0.0424042
0.0421455
0.0419194
0.0417207
0.0650993
0.0622574
0.05948
0.0568728
0.0544978
0.0523882
0.0505524
0.0489801
0.047649
0.0465295
0.0455894
0.0447967
0.0441218
0.0435385
0.0430249
0.042563
0.0421387
0.0417415
0.0413638
0.0410003
0.062795
0.0603777
0.0580055
0.0557746
0.0537332
0.0519047
0.0502924
0.0488862
0.0476679
0.046614
0.0456992
0.044898
0.0441867
0.0435436
0.04295
0.0423905
0.0418525
0.0413266
0.0408058
0.0402855
0.0607536
0.0586083
0.0565282
0.0545969
0.0528425
0.0512714
0.0498764
0.0486425
0.0475511
0.0465815
0.0457124
0.0449232
0.0441944
0.0435082
0.0428493
0.0422047
0.0415636
0.0409181
0.0402624
0.0395929
0.0589318
0.0569056
0.0550224
0.0533367
0.051842
0.0505184
0.049342
0.0482892
0.0473384
0.0464693
0.0456631
0.0449026
0.0441719
0.0434569
0.0427452
0.0420264
0.0412918
0.0405351
0.0397519
0.0389398
0.0572474
0.0551826
0.0534304
0.0519703
0.0507348
0.0496664
0.0487202
0.0478623
0.0470669
0.0463134
0.0455849
0.0448672
0.0441477
0.0434157
0.0426617
0.0418779
0.041058
0.0401975
0.0392934
0.0383447
0.055515
0.0532757
0.051658
0.0504593
0.0495182
0.0487334
0.04804
0.0473956
0.0467717
0.0461482
0.0455106
0.0448475
0.0441501
0.0434107
0.0426231
0.0417823
0.0408842
0.0399262
0.0389072
0.0378272
0.0532786
0.050899
0.0495779
0.0487602
0.0481882
0.0477339
0.0473243
0.0469155
0.0464801
0.0460007
0.0454659
0.0448682
0.0442023
0.0434641
0.0426507
0.0417599
0.0407901
0.0397409
0.0386128
0.0374073
0.0626307
0.0586447
0.0555899
0.0662326
0.101625
0.163776
0.257722
0.399844
0.633197
1.07927
0.0257745
0.0370947
0.058752
0.092403
0.140766
0.208227
0.302297
0.436321
0.633313
0.922877
0.0191934
0.0461372
0.0793707
0.120576
0.172969
0.24076
0.329683
0.447408
0.601927
0.791771
0.0468008
0.0691781
0.102849
0.145267
0.197632
0.262533
0.343247
0.442897
0.561906
0.691859
0.0737244
0.0927916
0.12439
0.165319
0.215268
0.275243
0.346479
0.42931
0.521306
0.614711
0.0977674
0.114205
0.142867
0.180788
0.226772
0.280634
0.342211
0.410426
0.482262
0.552105
0.118958
0.132979
0.158209
0.192135
0.233137
0.280263
0.332532
0.388314
0.444885
0.498508
0.137572
0.14923
0.170692
0.199956
0.235309
0.275415
0.318913
0.364088
0.408751
0.450502
0.15392
0.163236
0.180713
0.20487
0.234147
0.267129
0.302388
0.338366
0.373409
0.406016
0.168332
0.175325
0.188698
0.207468
0.230395
0.256231
0.283697
0.311516
0.33851
0.363782
0.181111
0.185826
0.195065
0.208299
0.22471
0.243395
0.263393
0.283787
0.303821
0.323025
0.192554
0.195058
0.200208
0.207865
0.217672
0.229192
0.241919
0.25537
0.269197
0.283266
0.202927
0.203315
0.20449
0.206628
0.209814
0.214143
0.219667
0.226439
0.234561
0.244218
0.212489
0.210878
0.208254
0.205022
0.20165
0.198757
0.197029
0.197178
0.199884
0.20572
0.221474
0.218005
0.211816
0.203466
0.193702
0.183593
0.174463
0.167823
0.165175
0.167707
0.230117
0.224952
0.215488
0.202371
0.186524
0.169313
0.152586
0.138728
0.130486
0.130213
0.238645
0.231967
0.219573
0.202161
0.180729
0.156757
0.132335
0.110555
0.0959374
0.0934337
0.247292
0.23931
0.224388
0.203272
0.176994
0.146996
0.115228
0.0847575
0.0618619
0.058062
0.256311
0.247254
0.230269
0.206168
0.176057
0.141332
0.103623
0.0649643
0.0299354
0.0279143
0.265975
0.256092
0.237571
0.211346
0.178681
0.141142
0.100491
0.0587691
0.0203595
0.0280091
0.339179
0.180289
0.104042
0.0602403
0.0322843
0.0148349
0.0102986
0.0157439
0.0208567
0.0236689
0.178379
0.128464
0.0847248
0.0515252
0.0273758
0.0105107
0.00611168
0.0134232
0.0189934
0.0219281
0.126637
0.0993832
0.0730188
0.05027
0.03248
0.0206139
0.0160524
0.0174726
0.0204011
0.0223341
0.10434
0.0856429
0.0676609
0.0515796
0.0385294
0.029333
0.0244035
0.0230561
0.0235477
0.0242754
0.0932303
0.0792611
0.0659176
0.0537912
0.0436312
0.0359444
0.0309306
0.0282999
0.0272987
0.0270919
0.087283
0.0762686
0.0657394
0.0560302
0.0476567
0.0409337
0.0360119
0.0327929
0.0309719
0.0301861
0.083991
0.0748777
0.0661151
0.0579335
0.0506967
0.0446324
0.03987
0.0364175
0.0341907
0.0330884
0.0821743
0.0742622
0.0665968
0.0593765
0.0528673
0.0472509
0.0426483
0.0391293
0.0367189
0.0354695
0.0812573
0.0740432
0.0670067
0.06034
0.0542511
0.048902
0.0444156
0.0408913
0.0384156
0.037104
0.0809956
0.074076
0.0672774
0.0608349
0.0549117
0.0496677
0.0452235
0.0416991
0.0391915
0.0378486
0.179697
0.165345
0.151447
0.138082
0.12567
0.114511
0.104921
0.0972876
0.0921955
0.0911004
0.180667
0.165717
0.151197
0.137294
0.124443
0.112977
0.103236
0.0956797
0.0910352
0.089459
0.182867
0.166549
0.15074
0.135748
0.122052
0.11002
0.100008
0.0924045
0.087599
0.0852162
0.186442
0.167835
0.149913
0.133178
0.118165
0.105261
0.0947523
0.0868701
0.0817144
0.0790184
0.191956
0.169757
0.148633
0.129375
0.112567
0.0985457
0.0874528
0.0792896
0.0739405
0.0711602
0.200522
0.172739
0.146929
0.124209
0.105124
0.0898314
0.0782118
0.0699791
0.0647439
0.0621142
0.214562
0.177843
0.1452
0.117797
0.0958606
0.0791708
0.0672232
0.0593181
0.054667
0.0525025
0.239658
0.188095
0.145051
0.110797
0.0849421
0.0666221
0.0546985
0.0477738
0.044364
0.0430571
0.294947
0.214216
0.150222
0.103697
0.0719926
0.0519046
0.0407454
0.0359077
0.0346301
0.0346516
0.530108
0.277636
0.155365
0.0907802
0.0543836
0.034211
0.0255465
0.0245681
0.0264001
0.0279692
0.0747268
0.0877457
0.0977072
0.104626
0.108511
0.109391
0.107304
0.102288
0.0943769
0.0836187
0.0701008
0.0540482
0.036222
0.0207393
0.0254882
0.0484729
0.0766314
0.107075
0.138572
0.170204
0.0799655
0.0905101
0.0991856
0.105638
0.109697
0.111313
0.1105
0.107317
0.101875
0.0943724
0.0851754
0.0750034
0.0653038
0.0588325
0.0594761
0.0694874
0.087465
0.110685
0.136932
0.16464
0.0895146
0.0957615
0.101965
0.10741
0.111674
0.114549
0.115967
0.115954
0.114618
0.112159
0.108895
0.105306
0.102084
0.100159
0.100624
0.10451
0.112449
0.124478
0.140101
0.158654
0.101881
0.102849
0.105623
0.109443
0.11371
0.118026
0.122165
0.126018
0.129565
0.132845
0.135936
0.138935
0.141937
0.145014
0.148183
0.151408
0.154596
0.157696
0.160853
0.164798
0.115461
0.110822
0.1095
0.111041
0.114864
0.120427
0.1273
0.135171
0.143828
0.153117
0.162908
0.173046
0.183303
0.193323
0.202552
0.210185
0.215122
0.216039
0.211648
0.201448
0.128557
0.118422
0.112688
0.111372
0.114134
0.120422
0.129639
0.141267
0.154911
0.170283
0.187154
0.205294
0.224387
0.243936
0.26312
0.280631
0.294457
0.301759
0.298914
0.282254
0.139292
0.124096
0.114078
0.109592
0.110666
0.116943
0.127808
0.142608
0.160829
0.182128
0.206303
0.233218
0.262705
0.294438
0.32772
0.361178
0.39228
0.416717
0.427793
0.41652
0.145462
0.126053
0.112534
0.105116
0.104112
0.109592
0.121195
0.138314
0.160407
0.187151
0.21846
0.25443
0.295263
0.34116
0.392134
0.447641
0.505837
0.562207
0.607191
0.623105
0.144172
0.122423
0.107382
0.0982753
0.0953937
0.0994072
0.110657
0.128937
0.153837
0.185104
0.22279
0.267272
0.319238
0.3797
0.45
0.531732
0.62632
0.733537
0.847151
0.943871
0.130784
0.112127
0.0997939
0.0917744
0.0881842
0.0903518
0.0998413
0.117535
0.14354
0.177747
0.220288
0.271716
0.333108
0.406221
0.493858
0.600535
0.733763
0.906032
1.13626
1.44323
0.111542
0.100643
0.0927364
0.0865475
0.0814672
0.0771111
0.0731781
0.0694126
0.0655519
0.0613197
0.0563706
0.0502705
0.0424029
0.031889
0.017511
0.00820032
0.039662
0.0973491
0.214833
0.518444
0.0958784
0.0906899
0.0855799
0.0810003
0.0769235
0.0732172
0.0697149
0.0662406
0.0625917
0.0585387
0.0537928
0.0479967
0.0406883
0.0313882
0.0204905
0.0180445
0.041313
0.0856093
0.156191
0.255837
0.0846435
0.0819512
0.0787864
0.0755891
0.0724972
0.0695148
0.0665733
0.0635744
0.0603858
0.0568601
0.0528231
0.0481149
0.0426592
0.0368117
0.0324292
0.034895
0.0502889
0.0797668
0.122913
0.178015
0.0759219
0.0745648
0.0726933
0.070576
0.0683573
0.0660881
0.0637632
0.0613415
0.058763
0.0559607
0.0528854
0.0495538
0.0461675
0.0433756
0.0427336
0.0469272
0.0586655
0.0791242
0.108085
0.14436
0.0688501
0.0683266
0.067343
0.0660538
0.0645719
0.0629607
0.0612468
0.0594331
0.0575135
0.0554894
0.053399
0.0513652
0.049685
0.0489658
0.0502616
0.0550105
0.064579
0.0796907
0.100236
0.125185
0.0629684
0.0630184
0.0626714
0.0620191
0.0611464
0.0601154
0.0589689
0.0577375
0.0564521
0.0551583
0.0539423
0.0529655
0.0525182
0.0530743
0.0553181
0.0600633
0.0680397
0.0796273
0.0946804
0.112373
0.0580012
0.0584667
0.0585906
0.0584313
0.0580549
0.0575187
0.0568728
0.0561631
0.0554414
0.054776
0.0542705
0.0540855
0.0544652
0.0557555
0.0583968
0.0628635
0.0695496
0.0786264
0.0899226
0.102834
0.0537703
0.0545423
0.0550189
0.0552414
0.0552635
0.0551376
0.0549151
0.0546491
0.0543996
0.0542426
0.0542805
0.054655
0.055558
0.0572342
0.0599663
0.0640337
0.0696446
0.0768556
0.0855018
0.0951553
0.0501509
0.0511465
0.0518861
0.0524011
0.0527371
0.0529417
0.0530647
0.0531596
0.0532876
0.0535222
0.0539559
0.0547059
0.0559176
0.0577613
0.060418
0.064051
0.0687643
0.0745568
0.0812836
0.0886433
0.0470483
0.0482015
0.0491327
0.0498672
0.0504447
0.0509078
0.0513026
0.05168
0.052097
0.0526201
0.0533283
0.0543152
0.0556885
0.0575657
0.0600618
0.06327
0.0672367
0.0719338
0.0772398
0.0829381
0.044388
0.0456446
0.0467091
0.0476026
0.0483597
0.0490179
0.0496188
0.0502082
0.0508369
0.0515624
0.0524497
0.0535719
0.055008
0.0568384
0.0591353
0.0619503
0.0652978
0.0691396
0.0733754
0.0778449
0.0421064
0.0434219
0.0445721
0.0455747
0.0464594
0.0472588
0.0480091
0.0487502
0.0495258
0.050384
0.0513771
0.0525614
0.0539945
0.0557311
0.0578165
0.0602776
0.0631127
0.0662823
0.0697041
0.0732555
0.0401497
0.0414879
0.0426851
0.0437557
0.0447249
0.0456204
0.0464728
0.0473157
0.0481854
0.0491213
0.0501648
0.0513587
0.052745
0.0543612
0.0562362
0.0583833
0.0607946
0.0634344
0.0662362
0.0691027
0.038469
0.0398011
0.0410144
0.0421203
0.0431395
0.0440946
0.0450106
0.045915
0.0468371
0.0478081
0.0488603
0.050026
0.0513359
0.0528166
0.0544875
0.0563565
0.0584163
0.0606398
0.0629753
0.0653445
0.0370214
0.0383252
0.0395307
0.0406463
0.0416883
0.0426742
0.0436238
0.0445583
0.0455005
0.0464742
0.0475039
0.0486137
0.0498264
0.0511618
0.0526351
0.0542548
0.05602
0.0579168
0.0599124
0.0619436
0.0357673
0.037026
0.0382057
0.0393121
0.0403567
0.0413523
0.042313
0.0432543
0.0441926
0.0451449
0.0461289
0.0471621
0.0482614
0.0494429
0.0507212
0.0521099
0.0536205
0.0552603
0.0570217
0.0588646
0.0346714
0.035873
0.0370137
0.0380973
0.0391308
0.0401216
0.0410784
0.0420107
0.0429285
0.0438425
0.0447639
0.0457043
0.0466763
0.0476934
0.0487724
0.0499349
0.0512109
0.0526376
0.054251
0.0560508
0.0337012
0.0348368
0.0359303
0.0369833
0.0379976
0.0389756
0.0399202
0.0408345
0.0417221
0.042587
0.0434341
0.0442693
0.0451007
0.04594
0.0468063
0.0477308
0.0487653
0.0499891
0.0515057
0.0534079
0.0328305
0.0338897
0.0349353
0.0359564
0.0369499
0.037913
0.0388427
0.0397356
0.0405884
0.0413982
0.0421632
0.0428832
0.0435614
0.0442069
0.0448394
0.0454976
0.0462528
0.0472287
0.0486266
0.0507286
0.0320434
0.0330416
0.0340421
0.0350307
0.0360012
0.0369461
0.0378569
0.0387243
0.0395386
0.0402902
0.0409707
0.0415739
0.0420972
0.0425452
0.0429337
0.0432998
0.0437177
0.0443293
0.0454088
0.0475439
1.06131
0.621422
0.391821
0.251915
0.159228
0.0977347
0.062893
0.053355
0.0575699
0.062327
0.907506
0.622254
0.428346
0.296363
0.203558
0.136823
0.0888359
0.0554214
0.0342689
0.024524
0.778672
0.591867
0.439814
0.323879
0.236164
0.169142
0.117216
0.0762914
0.0432507
0.0169285
0.680604
0.552887
0.435838
0.337721
0.258118
0.193989
0.142165
0.100182
0.0670193
0.045784
0.60497
0.513274
0.422855
0.341331
0.271103
0.211881
0.162513
0.122104
0.0911209
0.0730495
0.543633
0.475148
0.404608
0.33752
0.276857
0.223719
0.178325
0.140955
0.1129
0.0972749
0.49112
0.43862
0.38315
0.328359
0.276929
0.230493
0.190072
0.156683
0.131994
0.118601
0.444049
0.403274
0.359588
0.315315
0.272602
0.233154
0.198353
0.169578
0.148551
0.137331
0.400379
0.368673
0.334542
0.299418
0.264909
0.232553
0.203783
0.180036
0.16286
0.15379
0.358859
0.334477
0.308383
0.281407
0.254675
0.229433
0.206949
0.188481
0.175253
0.168308
0.318729
0.300462
0.281367
0.26184
0.242574
0.224443
0.208389
0.195324
0.186056
0.18119
0.279521
0.266495
0.253695
0.241165
0.229174
0.218153
0.208592
0.200947
0.195583
0.192733
0.240953
0.232512
0.225557
0.219783
0.214994
0.211086
0.208006
0.205703
0.204126
0.2032
0.202864
0.198501
0.197159
0.198099
0.20054
0.203738
0.207046
0.209921
0.211955
0.212848
0.16518
0.164497
0.168771
0.176585
0.186358
0.196608
0.206109
0.213906
0.219326
0.221912
0.127897
0.130596
0.140804
0.155869
0.173086
0.190218
0.205584
0.217955
0.226487
0.230624
0.0911132
0.0970166
0.113998
0.136878
0.161508
0.185137
0.205866
0.222363
0.233683
0.23921
0.0551773
0.064377
0.089914
0.121036
0.152614
0.181988
0.207372
0.227432
0.241169
0.247909
0.0221297
0.0354298
0.0719857
0.110455
0.147565
0.181451
0.210541
0.233487
0.249216
0.256962
0.0216839
0.0272687
0.0664004
0.107649
0.147591
0.184236
0.215841
0.240883
0.258111
0.266648
)
;

boundaryField
{
    down
    {
        type            symmetryPlane;
    }
    right
    {
        type            calculated;
        value           nonuniform List<scalar> 
30
(
0.208408
0.203552
0.193649
0.178417
0.157632
0.131321
0.0999769
0.0649624
0.0311738
0.0298798
0.0451051
0.0452644
0.0452111
0.0450558
0.0448178
0.044503
0.0441168
0.0436651
0.0431546
0.0425927
0.041988
0.0413502
0.0406909
0.0400228
0.03936
0.0387178
0.0381131
0.0375636
0.0370889
0.0367086
)
;
    }
    up
    {
        type            symmetryPlane;
    }
    left
    {
        type            calculated;
        value           uniform 0;
    }
    cylinder
    {
        type            symmetry;
    }
    defaultFaces
    {
        type            empty;
    }
}


// ************************************************************************* //
