/*--------------------------------*- C++ -*----------------------------------*\
| =========                 |                                                 |
| \\      /  F ield         | OpenFOAM: The Open Source CFD Toolbox           |
|  \\    /   O peration     | Version:  2512                                  |
|   \\  /    A nd           | Website:  www.openfoam.com                      |
|    \\/     M anipulation  |                                                 |
\*---------------------------------------------------------------------------*/
FoamFile
{
    version     2.0;
    format      ascii;
    arch        "LSB;label=32;scalar=64";
    class       volScalarField;
    location    "0";
    object      p;
}
// * * * * * * * * * * * * * * * * * * * * * * * * * * * * * * * * * * * * * //

dimensions      [0 2 -2 0 0 0 0];

internalField   nonuniform List<scalar> 
2000
(
-0.193289
-0.179838
-0.15995
-0.138783
-0.118736
-0.100544
-0.0846299
-0.0736929
-0.0785164
-0.138061
-0.253334
-0.238551
-0.215968
-0.19056
-0.165076
-0.141127
-0.120546
-0.107053
-0.108445
-0.148894
-0.307184
-0.291306
-0.266603
-0.238082
-0.208762
-0.180633
-0.155466
-0.135325
-0.122457
-0.123698
-0.35399
-0.337408
-0.311429
-0.281084
-0.249598
-0.219119
-0.191284
-0.167391
-0.14821
-0.136548
-0.39373
-0.376877
-0.350406
-0.319368
-0.287076
-0.255729
-0.226819
-0.201256
-0.179307
-0.162132
-0.426544
-0.409764
-0.383427
-0.352506
-0.320314
-0.288993
-0.259896
-0.233709
-0.210546
-0.190815
-0.45267
-0.436181
-0.410319
-0.379948
-0.348296
-0.317416
-0.28854
-0.262239
-0.238617
-0.217746
-0.472206
-0.456072
-0.430801
-0.4011
-0.3701
-0.33976
-0.311231
-0.285037
-0.261318
-0.240025
-0.485213
-0.46938
-0.444596
-0.415454
-0.384992
-0.355096
-0.32687
-0.30083
-0.277143
-0.255758
-0.491668
-0.476002
-0.45149
-0.422655
-0.392487
-0.362829
-0.334767
-0.308812
-0.285157
-0.263773
0.262749
0.246943
0.222106
0.196207
0.172361
0.151848
0.135111
0.12214
0.112728
0.103532
0.256026
0.246969
0.226124
0.200937
0.176591
0.15518
0.137449
0.123501
0.113165
0.101121
0.237574
0.236164
0.223156
0.202172
0.179203
0.157649
0.139046
0.123903
0.112247
0.0948833
0.208795
0.212267
0.207279
0.192901
0.173798
0.15391
0.135566
0.119866
0.107183
0.0824875
0.17034
0.176663
0.178002
0.17047
0.156593
0.139926
0.123184
0.107992
0.0950844
0.0612039
0.122693
0.130738
0.136636
0.135012
0.126466
0.113661
0.0993389
0.085572
0.0734704
0.0280964
0.0668767
0.0760637
0.0851833
0.0882528
0.0843527
0.0750741
0.0629202
0.0505756
0.0401273
-0.0203733
0.00458647
0.0146698
0.0263233
0.0332914
0.0334608
0.0270659
0.0156613
0.00228204
-0.00791838
-0.089664
-0.0615899
-0.050593
-0.036483
-0.0254167
-0.0202367
-0.0220599
-0.0316675
-0.049859
-0.0730059
-0.196081
-0.128547
-0.116436
-0.0995208
-0.083359
-0.0703518
-0.0603922
-0.0510488
-0.0374379
-0.0185697
-0.148889
0.0894728
0.0716062
0.0548018
0.0407731
0.0291174
0.0194671
0.0115032
0.00496065
-0.000383206
-0.00469533
-0.00811352
-0.0107263
-0.0126056
-0.0137823
-0.0142789
-0.0140829
-0.0131761
-0.0115029
-0.00899569
-0.00376726
0.0829059
0.0644602
0.0498508
0.0378458
0.0279632
0.0197903
0.0129926
0.00731875
0.00257308
-0.00137123
-0.00461366
-0.00720277
-0.0091792
-0.0105456
-0.0113068
-0.0114369
-0.0109155
-0.00968931
-0.00770697
-0.00326426
0.069042
0.0498631
0.039631
0.0316752
0.0253256
0.0200741
0.0155618
0.0115747
0.00798216
0.00474293
0.00183872
-0.000700247
-0.00285234
-0.00456748
-0.00581588
-0.00654744
-0.00673662
-0.00633618
-0.0053205
-0.00233071
0.0465266
0.0272337
0.0237093
0.0219015
0.020826
0.0198469
0.0186094
0.0169919
0.0149942
0.012717
0.0102734
0.007807
0.00542992
0.00326052
0.00137686
-0.000142018
-0.00125887
-0.00193564
-0.0021783
-0.00109746
0.0134513
-0.00427136
0.00175351
0.00840528
0.0143088
0.0187632
0.0215377
0.0227294
0.0225713
0.0213829
0.0194562
0.0170774
0.0144628
0.0118064
0.00923574
0.00686079
0.004732
0.00288336
0.00128127
0.000268191
-0.0326306
-0.0456588
-0.0262312
-0.00847445
0.00598491
0.0166796
0.0238004
0.0278922
0.0295683
0.0294466
0.0280326
0.0257636
0.0229555
0.0198688
0.0166718
0.0134999
0.010417
0.00746271
0.0045946
0.00158768
-0.0948799
-0.09801
-0.0597236
-0.0279139
-0.00370958
0.0134348
0.0246989
0.0314042
0.0346948
0.035532
0.034629
0.0325496
0.0296823
0.0263317
0.0226898
0.018908
0.0150622
0.011211
0.00733774
0.0026951
-0.177769
-0.162568
-0.0975945
-0.0488633
-0.0146327
0.00831403
0.0229906
0.0318021
0.0364667
0.0382365
0.0379639
0.0362829
0.0336154
0.0302862
0.0264967
0.0224073
0.0181038
0.0136743
0.00917271
0.00345264
-0.28786
-0.240608
-0.137904
-0.0708491
-0.0280286
-0.00075336
0.0165139
0.0271777
0.0333193
0.036301
0.037018
0.0361153
0.0340335
0.0311062
0.0275531
0.0235425
0.0191768
0.0145667
0.00986686
0.00375306
-0.321764
-0.295349
-0.163326
-0.0893009
-0.0445211
-0.0156069
0.00360536
0.0163259
0.0244203
0.029142
0.0313449
0.0316781
0.0306002
0.028476
0.025555
0.0220388
0.0180542
0.0137303
0.00925961
0.00350315
-0.222863
-0.186601
-0.125493
-0.0840933
-0.050848
-0.0255577
-0.00709049
0.00596532
0.014825
0.0204537
0.0235922
0.0248172
0.0245727
0.0232066
0.0209866
0.0181245
0.014785
0.0111113
0.00719867
0.00259253
-0.201672
-0.138169
-0.0934954
-0.0603379
-0.0361865
-0.0179425
-0.00420145
0.00588419
0.0129649
0.0176009
0.020259
0.0213393
0.0211673
0.020018
0.0181117
0.0156354
0.0127353
0.00952837
0.00605265
0.00212211
-0.173062
-0.122449
-0.089274
-0.058787
-0.0354748
-0.0181967
-0.00546633
0.00377891
0.0102827
0.0145918
0.0171381
0.0182679
0.0182699
0.0173806
0.0157999
0.0136902
0.0111827
0.00836528
0.00526719
0.00182293
-0.146277
-0.108635
-0.0841206
-0.0587115
-0.0373626
-0.0208042
-0.00840001
0.000667847
0.00709575
0.0114265
0.0140847
0.0154056
0.0156618
0.015075
0.013829
0.0120717
0.00991813
0.00744304
0.00467802
0.00161197
-0.125273
-0.0966362
-0.0782109
-0.0577667
-0.0391696
-0.02385
-0.0119015
-0.00292191
0.00359351
0.00810729
0.0110093
0.0126172
0.013191
0.0129419
0.0120431
0.0106318
0.00881266
0.00665495
0.00419574
0.00144683
-0.108744
-0.0862183
-0.0721538
-0.0558622
-0.0401229
-0.0264135
-0.0152181
-0.00648276
7.00213e-05
0.00477447
0.00795056
0.0098787
0.0107966
0.0109014
0.0103547
0.00928521
0.00779047
0.00593792
0.00376881
0.0013046
-0.0954635
-0.0772045
-0.0663235
-0.0533346
-0.0402023
-0.0282116
-0.0179842
-0.00968551
-0.00322802
0.00158838
0.00499713
0.00722517
0.00847688
0.00892826
0.00872652
0.00799046
0.00681179
0.00525646
0.00336824
0.00117279
-0.084633
-0.0694391
-0.0609159
-0.0505089
-0.0396118
-0.0292678
-0.0200978
-0.0123769
-0.00614896
-0.00132706
0.00223714
0.00471124
0.00625925
0.00703018
0.00715312
0.0067351
0.005861
0.00459442
0.00297993
0.00104533
-0.0757221
-0.0627791
-0.0560196
-0.0476203
-0.0385799
-0.0297194
-0.0215977
-0.0145267
-0.00862864
-0.00390004
-0.00026503
0.00238729
0.00417904
0.00522934
0.00564646
0.0055237
0.00493769
0.00394823
0.00259934
0.000920026
-0.0683587
-0.0570953
-0.0516643
-0.0448254
-0.0373013
-0.0297286
-0.0225848
-0.0161774
-0.0106673
-0.00610664
-0.00247568
0.000287724
0.0022665
0.00354995
0.00422461
0.0043688
0.00404963
0.00332185
0.00222775
0.000797041
-0.0622641
-0.0522698
-0.047845
-0.042221
-0.0359236
-0.0294431
-0.0231757
-0.017404
-0.0123024
-0.00795648
-0.00438674
-0.00157008
0.000542454
0.00201266
0.00290602
0.0032856
0.00320835
0.00272311
0.00186962
0.000677796
-0.0572211
-0.0481976
-0.0445406
-0.0398661
-0.0345563
-0.0289871
-0.0234825
-0.0182928
-0.0135912
-0.00948112
-0.00601011
-0.00318468
-0.000983646
0.000630893
0.00170519
0.00228782
0.00242556
0.00216093
0.00153058
0.000564268
-0.0530551
-0.0447858
-0.0417219
-0.0377937
-0.0332764
-0.0284579
-0.0236016
-0.018926
-0.0145954
-0.0107213
-0.00736846
-0.00456474
-0.00231066
-0.000588071
0.000632622
0.00138686
0.00171189
0.00164394
0.00121641
0.000458521
-0.0496253
-0.0419558
-0.0393604
-0.0360235
-0.0321398
-0.0279309
-0.0236129
-0.0193762
-0.0153744
-0.0117207
-0.00849039
-0.00572602
-0.00344439
-0.00164301
-0.000306067
0.000590575
0.00107561
0.00117946
0.000932248
0.000362453
-0.0468194
-0.0396448
-0.0374319
-0.0345668
-0.031185
-0.0274613
-0.0235775
-0.0197022
-0.0159787
-0.0125191
-0.00940408
-0.00668612
-0.00439362
-0.00253596
-0.00110831
-9.58051e-05
0.000522969
0.000773316
0.000682347
0.000277653
-0.0445534
-0.0378092
-0.0359215
-0.0334322
-0.0304383
-0.0270871
-0.0235391
-0.0199481
-0.0164485
-0.0131498
-0.010135
-0.00746258
-0.00516872
-0.00327149
-0.0017743
-0.000669636
5.8042e-05
0.000429744
0.000469959
0.000205379
-0.0427717
-0.036427
-0.0348236
-0.0326237
-0.0299118
-0.026828
-0.0235234
-0.0201422
-0.0168117
-0.0136377
-0.0107034
-0.00807023
-0.00577933
-0.00385461
-0.00230549
-0.00112984
-0.000316699
0.000151591
0.000297376
0.000146522
-0.0414505
-0.0354984
-0.034137
-0.0321343
-0.0295992
-0.0266837
-0.0235374
-0.0202974
-0.017084
-0.0139989
-0.0111236
-0.00852055
-0.00623358
-0.00429028
-0.00270404
-0.00147656
-0.000600082
-5.94602e-05
0.000166063
0.000101663
-0.0405975
-0.0350337
-0.0338436
-0.0319273
-0.0294663
-0.0266321
-0.0235715
-0.0204135
-0.0172715
-0.014242
-0.0114047
-0.00882157
-0.00653769
-0.00458263
-0.00297221
-0.00171049
-0.00079181
-0.000202629
7.67509e-05
7.10669e-05
-0.0402304
-0.034988
-0.0338497
-0.0319082
-0.0294455
-0.0266326
-0.023605
-0.0204829
-0.0173737
-0.0143707
-0.0115517
-0.00897822
-0.00669564
-0.00473445
-0.00311152
-0.00183211
-0.000891609
-0.00027732
2.99711e-05
5.4848e-05
-0.245123
-0.237746
-0.223439
-0.203646
-0.180763
-0.15864
-0.144544
-0.157177
-0.264768
-0.290404
-0.233058
-0.227147
-0.215911
-0.201149
-0.185962
-0.175669
-0.180322
-0.220577
-0.334312
-0.318751
-0.227083
-0.222618
-0.214373
-0.204386
-0.196158
-0.195436
-0.211571
-0.258329
-0.347609
-0.301652
-0.226226
-0.223061
-0.217443
-0.211467
-0.20856
-0.21379
-0.233872
-0.275328
-0.3376
-0.27272
-0.229497
-0.227378
-0.223784
-0.220659
-0.220948
-0.228454
-0.247063
-0.278447
-0.317698
-0.242945
-0.235927
-0.234529
-0.232229
-0.230663
-0.232089
-0.238969
-0.252989
-0.273266
-0.294271
-0.215664
-0.244633
-0.243606
-0.24185
-0.240627
-0.241489
-0.245773
-0.25375
-0.263516
-0.270321
-0.191536
-0.254843
-0.253852
-0.251958
-0.250056
-0.249095
-0.249609
-0.251107
-0.251521
-0.247224
-0.170404
-0.265914
-0.264666
-0.262066
-0.258703
-0.255077
-0.25123
-0.246372
-0.238675
-0.225577
-0.151924
-0.277336
-0.275595
-0.271853
-0.266479
-0.259687
-0.251283
-0.240463
-0.225805
-0.205617
-0.135762
-0.288711
-0.286302
-0.281114
-0.273382
-0.263184
-0.250276
-0.234007
-0.213391
-0.187418
-0.121635
-0.299744
-0.29655
-0.289726
-0.279457
-0.265801
-0.248591
-0.227419
-0.201713
-0.170986
-0.109319
-0.310213
-0.30617
-0.29762
-0.284765
-0.267728
-0.246508
-0.220974
-0.190936
-0.156301
-0.0986386
-0.319956
-0.315042
-0.304758
-0.289368
-0.269122
-0.244231
-0.214858
-0.181152
-0.143337
-0.0894514
-0.328837
-0.323073
-0.311115
-0.293323
-0.270108
-0.241913
-0.209198
-0.172421
-0.132065
-0.0816457
-0.336736
-0.330175
-0.316665
-0.296674
-0.270784
-0.239679
-0.204097
-0.164785
-0.122462
-0.075132
-0.343521
-0.33625
-0.321366
-0.299445
-0.271237
-0.237641
-0.199654
-0.158294
-0.114513
-0.0698413
-0.349028
-0.341166
-0.325145
-0.301638
-0.271536
-0.235917
-0.195994
-0.153027
-0.108226
-0.0657272
-0.353035
-0.344737
-0.327882
-0.303216
-0.271733
-0.234639
-0.193292
-0.14914
-0.103668
-0.062783
-0.355242
-0.346702
-0.329387
-0.304085
-0.271847
-0.233943
-0.191794
-0.146928
-0.101064
-0.0611083
-0.136675
-0.0770212
-0.0730187
-0.0848053
-0.101467
-0.120261
-0.140739
-0.162192
-0.182191
-0.195667
-0.145316
-0.106058
-0.105684
-0.119949
-0.141149
-0.165586
-0.191423
-0.217025
-0.239688
-0.254467
-0.120987
-0.120405
-0.133934
-0.154609
-0.180206
-0.208674
-0.238212
-0.266846
-0.291553
-0.307468
-0.134342
-0.146448
-0.166087
-0.190345
-0.21847
-0.249158
-0.280783
-0.311188
-0.337186
-0.353795
-0.160293
-0.177774
-0.200048
-0.225867
-0.254974
-0.286457
-0.318832
-0.349913
-0.376397
-0.393276
-0.189267
-0.209211
-0.232609
-0.258977
-0.288214
-0.319617
-0.351862
-0.382804
-0.409173
-0.42598
-0.216467
-0.237479
-0.261271
-0.287698
-0.316675
-0.347611
-0.379299
-0.409696
-0.435591
-0.452113
-0.239039
-0.260415
-0.284257
-0.310536
-0.339139
-0.369512
-0.400541
-0.430264
-0.455587
-0.471751
-0.255117
-0.276542
-0.300308
-0.326403
-0.354677
-0.384597
-0.415081
-0.444249
-0.469072
-0.48492
-0.263533
-0.284927
-0.308626
-0.3346
-0.362684
-0.392344
-0.422522
-0.451367
-0.4759
-0.491562
0.0821214
0.091508
0.101185
0.114241
0.130942
0.151308
0.174963
0.200651
0.225318
0.241058
0.0803341
0.0924146
0.102931
0.116888
0.134516
0.155726
0.179858
0.204867
0.225692
0.234954
0.0755027
0.092625
0.104336
0.119382
0.137808
0.159124
0.181892
0.202792
0.215932
0.217676
0.065215
0.089325
0.101911
0.117413
0.135521
0.155163
0.174112
0.188486
0.193701
0.190593
0.0466303
0.0795968
0.092267
0.107164
0.123619
0.140033
0.153772
0.161338
0.160231
0.154265
0.0166803
0.0608456
0.0725778
0.0859739
0.0999636
0.112491
0.120889
0.12251
0.116796
0.109048
-0.0283485
0.0307333
0.0407082
0.0525916
0.0643369
0.0732805
0.0769656
0.073821
0.0647794
0.0558206
-0.0940802
-0.0138703
-0.00426859
0.00851889
0.0193888
0.0253338
0.0248431
0.0176936
0.00606632
-0.0038552
-0.19679
-0.0754141
-0.0531427
-0.03578
-0.0268908
-0.0256456
-0.0312382
-0.0425393
-0.0566722
-0.0675993
-0.149677
-0.0191597
-0.0383466
-0.0527577
-0.0628933
-0.0734993
-0.0869611
-0.103363
-0.120362
-0.132464
-0.0494688
-0.0505889
-0.0511252
-0.0508105
-0.0497385
-0.0479859
-0.0456215
-0.0426872
-0.0392046
-0.0351543
-0.0304919
-0.0251195
-0.018911
-0.0116729
-0.00318137
0.0068653
0.0187936
0.0330005
0.049905
0.0678297
-0.0444978
-0.0456488
-0.0459756
-0.0454841
-0.0442753
-0.0424324
-0.0400326
-0.0371286
-0.0337598
-0.0299296
-0.0256259
-0.0207857
-0.0153235
-0.00907987
-0.00185902
0.00663521
0.0167455
0.0289225
0.0436633
0.0621406
-0.0349492
-0.0361787
-0.0361103
-0.0352995
-0.0338572
-0.0318729
-0.0294352
-0.0266135
-0.0234786
-0.0200768
-0.0164572
-0.0126287
-0.00858962
-0.00425964
0.000489937
0.00592657
0.0124173
0.0205024
0.0308732
0.0499931
-0.0215528
-0.0229382
-0.0223491
-0.0211481
-0.0194483
-0.0173407
-0.0149174
-0.0122673
-0.00949502
-0.00670839
-0.00403843
-0.00160708
0.000459691
0.00209666
0.0033048
0.00425785
0.00532195
0.00716951
0.0107973
0.029951
-0.00531166
-0.00695406
-0.00580639
-0.00424251
-0.00236136
-0.000237293
0.00204791
0.0043957
0.00666981
0.00869568
0.0102443
0.0110497
0.0108057
0.0092225
0.006065
0.00128408
-0.00487131
-0.0116616
-0.0176769
-0.000168676
0.0125684
0.0105773
0.0122096
0.0139889
0.0158612
0.0177971
0.0197477
0.0216194
0.0232549
0.024419
0.0247851
0.02393
0.0213282
0.0163813
0.00846654
-0.0029187
-0.0179498
-0.0361002
-0.0557019
-0.0429146
0.0307493
0.0283878
0.0303017
0.0320191
0.0335811
0.0350403
0.0364007
0.0375849
0.0384248
0.03864
0.037826
0.0354206
0.0306799
0.0226443
0.010147
-0.00810695
-0.0332792
-0.0658507
-0.104592
-0.10174
0.0477923
0.0451973
0.0470539
0.0483116
0.0491875
0.0498471
0.0503458
0.0506131
0.0504696
0.0496027
0.0475644
0.043707
0.0371355
0.0265801
0.0102801
-0.0141679
-0.0497866
-0.0997197
-0.165587
-0.181135
0.0621115
0.0596799
0.0610187
0.0613595
0.0612042
0.0608108
0.0602366
0.0593824
0.0580361
0.0558561
0.0523694
0.0469026
0.038514
0.025805
0.00663779
-0.0224282
-0.0669751
-0.135687
-0.239837
-0.287576
0.0717687
0.0701703
0.0705593
0.069702
0.0684239
0.0669365
0.0652201
0.0631098
0.0603481
0.0565542
0.051236
0.043714
0.0330895
0.0180686
-0.00328011
-0.0342302
-0.0810689
-0.157338
-0.292095
-0.321099
0.0745415
0.0734484
0.0731008
0.0716279
0.0697218
0.0675325
0.0650124
0.0619933
0.0582152
0.0533171
0.046832
0.0381511
0.0264949
0.0108514
-0.0100571
-0.0377178
-0.0733844
-0.117499
-0.182119
-0.221688
0.0741074
0.0734131
0.0730795
0.0717879
0.0699083
0.067623
0.0649491
0.0617811
0.0579318
0.0531307
0.0470405
0.0392373
0.029221
0.0163896
3.6421e-05
-0.0207469
-0.0474518
-0.0832777
-0.131012
-0.195384
0.0726779
0.0722399
0.0719549
0.0709226
0.0692605
0.0670926
0.0644511
0.0612767
0.057428
0.0526942
0.0467926
0.0393667
0.0299652
0.01801
0.00271648
-0.0170321
-0.0427958
-0.0758365
-0.111893
-0.162851
0.0707897
0.0705179
0.0702596
0.069416
0.067972
0.0659726
0.063431
0.0602997
0.0564633
0.0517403
0.0458772
0.0385411
0.0292965
0.0175764
0.00264729
-0.0163628
-0.040164
-0.0681288
-0.0954069
-0.133431
0.0686588
0.0684852
0.0682297
0.0674948
0.066206
0.0643471
0.0618995
0.0588082
0.0549659
0.050206
0.0442951
0.036925
0.0277009
0.0161405
0.00170477
-0.0160584
-0.0371179
-0.0601128
-0.0812133
-0.110416
0.0663846
0.0662596
0.0659868
0.0652982
0.0640956
0.0623239
0.0599358
0.0568629
0.0529985
0.0481879
0.0422213
0.0348312
0.0256959
0.0144652
0.000831361
-0.0153009
-0.0334941
-0.0523098
-0.0689679
-0.0922673
0.0640276
0.0639167
0.0636115
0.0629242
0.0617513
0.0600162
0.0576516
0.0545783
0.050691
0.0458494
0.0398746
0.0325529
0.0236511
0.0129563
0.000356623
-0.014014
-0.0295657
-0.0450328
-0.0584381
-0.0776686
0.0616322
0.0615136
0.0611653
0.0604508
0.0592687
0.0575334
0.0551671
0.0520861
0.0481906
0.0433591
0.0374485
0.0303031
0.0217753
0.0117684
0.000307821
-0.0123544
-0.025617
-0.0384438
-0.0494206
-0.0657668
0.0592422
0.0591025
0.0587054
0.0579465
0.0567319
0.0549747
0.0525949
0.0495103
0.0456314
0.0408584
0.0350851
0.0282099
0.0201577
0.0109177
0.00059815
-0.0105048
-0.0218434
-0.0325965
-0.0417434
-0.0559996
0.0568967
0.0567296
0.0562819
0.0554718
0.054214
0.0524262
0.0500318
0.0469554
0.0431208
0.038451
0.0328741
0.0263343
0.0188121
0.0103539
0.00111029
-0.00862185
-0.0183704
-0.0274936
-0.035245
-0.0479629
0.054637
0.0544403
0.0539437
0.0530811
0.0517781
0.0499597
0.0475565
0.044503
0.0407377
0.0362057
0.0308644
0.0246942
0.0177151
0.0100075
0.00173831
-0.00681689
-0.0152632
-0.0231022
-0.0297834
-0.0413543
0.0524985
0.0522736
0.0517318
0.0508207
0.0494762
0.0476323
0.045229
0.0422121
0.038535
0.0341621
0.0290748
0.0232807
0.0168253
0.00980759
0.00239454
-0.00516755
-0.0125531
-0.0193757
-0.0252275
-0.0359306
0.0505172
0.0502666
0.0496849
0.0487309
0.0473511
0.045489
0.0430944
0.0401244
0.0365462
0.0323406
0.0275075
0.0220734
0.0161001
0.0096941
0.0030149
-0.00372118
-0.0102467
-0.0162611
-0.0214617
-0.0314964
0.0487215
0.0484492
0.0478335
0.046844
0.0454363
0.0435631
0.0411841
0.0382668
0.0347901
0.0307481
0.0261544
0.0210482
0.0155002
0.00961866
0.00355284
-0.00250723
-0.00833911
-0.0137064
-0.0183859
-0.0278885
0.0471387
0.0468485
0.046205
0.0451866
0.0437579
0.0418799
0.0395205
0.0366566
0.0332769
0.0293853
0.0250052
0.0201836
0.0149956
0.00954762
0.00397912
-0.00154013
-0.00681975
-0.0116676
-0.0159168
-0.0249769
0.0457881
0.0454842
0.0448189
0.0437787
0.0423353
0.0404566
0.0381181
0.0353042
0.032011
0.0282498
0.0240501
0.0194632
0.0145655
0.00945996
0.00427779
-0.000824957
-0.00567642
-0.0101089
-0.0139922
-0.0226579
0.0446871
0.0443729
0.0436912
0.0426352
0.041182
0.0393052
0.0369862
0.0342153
0.0309941
0.0273387
0.0232823
0.0188779
0.0142006
0.00934931
0.00444817
-0.000354943
-0.00489487
-0.00900771
-0.0125713
-0.0208596
0.0438461
0.0435245
0.0428317
0.0417654
0.0403063
0.0384323
0.0361294
0.0333921
0.0302259
0.0266496
0.0226984
0.0184249
0.0139017
0.00922291
0.0045057
-0.000107673
-0.00445082
-0.00834411
-0.0116377
-0.0195411
0.0432741
0.0429459
0.0422469
0.041175
0.0397125
0.0378408
0.0355492
0.0328347
0.0297051
0.0261809
0.0222977
0.0181072
0.0136789
0.00910157
0.00448527
-3.47557e-05
-0.0042924
-0.00808424
-0.0111838
-0.0186957
0.0429786
0.0426398
0.0419407
0.0408669
0.0394023
0.0375318
0.0352458
0.0325426
0.0294311
0.0259326
0.0220825
0.0179318
0.0135478
0.00901544
0.00443889
-5.48277e-05
-0.00430846
-0.00811598
-0.0111489
-0.0183313
-0.287273
-0.260127
-0.153997
-0.142081
-0.156616
-0.179069
-0.202257
-0.222376
-0.237059
-0.244856
-0.311988
-0.328534
-0.216521
-0.177281
-0.173279
-0.18404
-0.199627
-0.214783
-0.226437
-0.232803
-0.291697
-0.339949
-0.252919
-0.207606
-0.192435
-0.193845
-0.202625
-0.213111
-0.221847
-0.226812
-0.260405
-0.328113
-0.268468
-0.228847
-0.210052
-0.205755
-0.209395
-0.216
-0.2222
-0.22593
-0.228842
-0.306621
-0.270212
-0.240962
-0.223926
-0.217593
-0.218222
-0.222119
-0.2264
-0.229165
-0.200153
-0.281854
-0.263799
-0.24587
-0.233659
-0.228168
-0.227841
-0.230322
-0.233421
-0.235555
-0.174915
-0.256804
-0.25299
-0.245714
-0.23973
-0.237018
-0.237419
-0.239694
-0.24236
-0.244218
-0.152903
-0.232811
-0.240106
-0.242274
-0.242905
-0.244114
-0.246481
-0.249558
-0.252468
-0.254384
-0.133739
-0.210451
-0.226533
-0.236864
-0.243951
-0.24964
-0.254792
-0.259441
-0.263153
-0.265414
-0.117055
-0.189933
-0.213081
-0.230402
-0.243519
-0.253856
-0.26227
-0.269024
-0.273963
-0.276797
-0.102545
-0.171307
-0.200211
-0.2235
-0.242111
-0.25702
-0.268919
-0.278107
-0.284567
-0.288139
-0.0899625
-0.154561
-0.188187
-0.216562
-0.240104
-0.259363
-0.27478
-0.286569
-0.294725
-0.299142
-0.0791056
-0.139653
-0.177149
-0.209847
-0.237766
-0.26107
-0.279913
-0.294338
-0.30427
-0.309587
-0.0698168
-0.126538
-0.167178
-0.203526
-0.23529
-0.262289
-0.284375
-0.301372
-0.313079
-0.319307
-0.0619612
-0.115168
-0.158312
-0.197711
-0.232817
-0.263135
-0.288216
-0.307645
-0.321058
-0.328171
-0.0554354
-0.105506
-0.150583
-0.192495
-0.230464
-0.263702
-0.291475
-0.313125
-0.328118
-0.336055
-0.0501496
-0.0975195
-0.144024
-0.187965
-0.228335
-0.264069
-0.294174
-0.317771
-0.334158
-0.342829
-0.0460455
-0.0912048
-0.138705
-0.184242
-0.226543
-0.264306
-0.296313
-0.32151
-0.339048
-0.348329
-0.0431042
-0.0866195
-0.134777
-0.181493
-0.225219
-0.26446
-0.297856
-0.32422
-0.342605
-0.352333
-0.0414205
-0.0839968
-0.132538
-0.179971
-0.224498
-0.264555
-0.298709
-0.325717
-0.344568
-0.354543
)
;

boundaryField
{
    down
    {
        type            symmetryPlane;
    }
    right
    {
        type            fixedValue;
        value           uniform 0;
    }
    up
    {
        type            symmetryPlane;
    }
    left
    {
        type            zeroGradient;
    }
    cylinder
    {
        type            symmetry;
    }
    defaultFaces
    {
        type            empty;
    }
}


// ************************************************************************* //
