/*--------------------------------*- C++ -*----------------------------------*\
| =========                 |                                                 |
| \\      /  F ield         | OpenFOAM: The Open Source CFD Toolbox           |
|  \\    /   O peration     | Version:  2512                                  |
|   \\  /    A nd           | Website:  www.openfoam.com                      |
|    \\/     M anipulation  |                                                 |
\*---------------------------------------------------------------------------*/
FoamFile
{
    version     2.0;
    format      ascii;
    arch        "LSB;label=32;scalar=64";
    class       volScalarField;
    location    "0";
    object      Phi;
}
// * * * * * * * * * * * * * * * * * * * * * * * * * * * * * * * * * * * * * //

dimensions      [0 2 -1 0 0 0 0];

internalField   nonuniform List<scalar> 
2000
(
1.47574
1.4698
1.45929
1.44516
1.4281
1.40861
1.38712
1.36416
1.34073
1.31927
1.53444
1.52919
1.51995
1.50764
1.49296
1.47651
1.45889
1.44077
1.42305
1.40683
1.59689
1.59235
1.5844
1.57389
1.5615
1.54779
1.5333
1.51858
1.50414
1.4904
1.66257
1.65873
1.65204
1.64323
1.63291
1.62156
1.60961
1.59743
1.58532
1.57346
1.73099
1.72782
1.7223
1.71507
1.70661
1.69733
1.68753
1.67748
1.66734
1.65721
1.80166
1.79912
1.79472
1.78894
1.78219
1.77477
1.7669
1.75877
1.75048
1.74209
1.87414
1.8722
1.86884
1.86443
1.85927
1.85359
1.84754
1.84125
1.83478
1.82817
1.94799
1.94663
1.94427
1.94117
1.93753
1.93352
1.92923
1.92475
1.92011
1.91536
2.02282
2.02201
2.02062
2.01878
2.01663
2.01424
2.0117
2.00902
2.00625
2.0034
2.09821
2.09795
2.0975
2.09691
2.09622
2.09546
2.09464
2.09379
2.0929
2.09199
1.16855
1.16061
1.1467
1.12824
1.10628
1.08165
1.05497
1.02674
0.997342
0.967089
1.17421
1.16627
1.15234
1.13384
1.11184
1.08714
1.06038
1.03205
1.00255
0.972209
1.18553
1.17758
1.16362
1.14507
1.12298
1.09815
1.07121
1.04269
1.01298
0.982426
1.20251
1.19456
1.18059
1.16198
1.13977
1.11475
1.08755
1.0587
1.02863
0.997704
1.22517
1.21724
1.20328
1.18465
1.16232
1.13707
1.10953
1.0802
1.04956
1.01802
1.25347
1.24561
1.23175
1.21316
1.19079
1.16534
1.13738
1.10743
1.07595
1.04343
1.28738
1.27967
1.26602
1.24765
1.22539
1.19987
1.17154
1.14084
1.1082
1.07415
1.32678
1.31932
1.30609
1.28819
1.26638
1.24112
1.21271
1.18134
1.14725
1.11084
1.37151
1.36443
1.35185
1.33481
1.31394
1.28961
1.26187
1.23054
1.19518
1.15536
1.42129
1.41471
1.40306
1.38729
1.36804
1.34563
1.32008
1.29094
1.25682
1.21421
0.936338
0.90318
0.867803
0.830259
0.790633
0.749025
0.705557
0.660355
0.613554
0.565286
0.515687
0.464882
0.412998
0.360148
0.306446
0.251992
0.196884
0.141209
0.0850512
0.0284814
0.941399
0.908111
0.872528
0.834716
0.794777
0.752828
0.709004
0.663442
0.616287
0.567677
0.517754
0.466644
0.414475
0.361362
0.307418
0.252743
0.197435
0.141578
0.0852581
0.0285439
0.951472
0.917896
0.881869
0.843493
0.802907
0.760258
0.715713
0.66943
0.621572
0.57229
0.52173
0.470025
0.417304
0.363682
0.309272
0.254172
0.19848
0.142277
0.085648
0.0286604
0.966466
0.93238
0.895608
0.856314
0.814697
0.770961
0.725315
0.677952
0.629056
0.57879
0.527311
0.474754
0.421248
0.366906
0.31184
0.256144
0.199914
0.143231
0.0861763
0.0288161
0.986269
0.951344
0.913415
0.872752
0.829653
0.784401
0.737263
0.688469
0.638226
0.586707
0.534073
0.480456
0.425982
0.37076
0.314896
0.258479
0.201603
0.144345
0.086786
0.0289915
1.01078
0.974506
0.93483
0.892209
0.847088
0.799854
0.750834
0.700291
0.648442
0.595462
0.541503
0.486687
0.431131
0.374932
0.318187
0.26098
0.203398
0.145517
0.0874167
0.0291666
1.03996
1.00151
0.959216
0.913859
0.866088
0.816393
0.765143
0.712603
0.658976
0.604415
0.54905
0.492981
0.436306
0.379106
0.321464
0.263456
0.205161
0.146654
0.0880169
0.0293246
1.07392
1.03184
0.98562
0.936548
0.885466
0.832898
0.77918
0.72452
0.669066
0.612921
0.556174
0.498892
0.441146
0.382997
0.324511
0.265751
0.206789
0.147695
0.0885553
0.0294567
1.11294
1.06449
1.01249
0.958639
0.90373
0.848092
0.79188
0.735165
0.677992
0.620391
0.562396
0.504037
0.445351
0.386378
0.327164
0.267759
0.208223
0.148621
0.089036
0.0295701
1.15692
1.097
1.03712
0.977903
0.919166
0.860676
0.802253
0.74377
0.685153
0.626351
0.567345
0.508126
0.448703
0.389094
0.329327
0.269435
0.209466
0.14947
0.0895189
0.0297075
1.20349
1.1249
1.05666
0.992697
0.930814
0.870038
0.809863
0.749999
0.69027
0.630566
0.570821
0.510995
0.451074
0.391053
0.330944
0.270765
0.210544
0.150318
0.0901248
0.0300092
1.22213
1.14395
1.07284
1.00603
0.941777
0.879084
0.817354
0.756216
0.695436
0.634861
0.57439
0.513958
0.453528
0.393079
0.332604
0.272107
0.211602
0.151104
0.0906328
0.030201
1.23121
1.15591
1.08473
1.01679
0.951178
0.887166
0.824248
0.762072
0.700395
0.639049
0.577917
0.516918
0.456
0.395128
0.334284
0.273458
0.21265
0.151863
0.0911007
0.0303628
1.23659
1.16377
1.09336
1.02523
0.958976
0.894153
0.830399
0.767428
0.705022
0.643021
0.581307
0.519795
0.458423
0.397148
0.335943
0.27479
0.213676
0.152596
0.0915439
0.030512
1.24018
1.1692
1.09971
1.03181
0.965338
0.900071
0.835768
0.772217
0.709242
0.646705
0.584495
0.52253
0.460746
0.399098
0.337551
0.27608
0.214668
0.153301
0.0919664
0.0306531
1.24278
1.17314
1.10449
1.03695
0.970497
0.905024
0.840384
0.776428
0.713025
0.650059
0.587437
0.525082
0.462934
0.400946
0.339081
0.277311
0.215614
0.153972
0.0923676
0.0307866
1.24473
1.1761
1.10815
1.041
0.97468
0.909146
0.844314
0.780088
0.71637
0.65307
0.590111
0.527426
0.46496
0.402669
0.340515
0.278469
0.216506
0.154604
0.0927454
0.0309123
1.24626
1.17838
1.111
1.04422
0.978077
0.912566
0.84764
0.78324
0.719295
0.65574
0.59251
0.52955
0.466812
0.404254
0.341841
0.279543
0.217334
0.155193
0.0930973
0.0310294
1.24746
1.18017
1.11326
1.0468
0.980845
0.915399
0.850441
0.785935
0.721832
0.658082
0.594638
0.531452
0.468483
0.405693
0.343051
0.280527
0.218096
0.155734
0.0934214
0.0311373
1.24842
1.18159
1.11506
1.04888
0.983104
0.917743
0.852791
0.788225
0.724013
0.66012
0.596506
0.533136
0.469973
0.406985
0.344142
0.281418
0.218787
0.156227
0.0937166
0.0312356
1.24918
1.18272
1.11649
1.05056
0.984947
0.919679
0.854754
0.79016
0.725876
0.661876
0.598131
0.534611
0.471287
0.40813
0.345114
0.282214
0.219406
0.156669
0.093982
0.0313241
1.24977
1.18361
1.11764
1.05191
0.986447
0.921271
0.856385
0.791784
0.727454
0.663376
0.59953
0.53589
0.472432
0.409133
0.345969
0.282917
0.219955
0.157062
0.0942177
0.0314027
1.25022
1.1843
1.11854
1.05299
0.98766
0.922572
0.857731
0.793136
0.728778
0.664645
0.60072
0.536984
0.473418
0.410001
0.346711
0.283529
0.220433
0.157405
0.0944241
0.0314716
1.25054
1.18482
1.11924
1.05384
0.988631
0.923624
0.858829
0.794248
0.729876
0.665704
0.60172
0.537909
0.474255
0.41074
0.347346
0.284053
0.220845
0.1577
0.0946018
0.0315309
1.25073
1.18519
1.11977
1.0545
0.989395
0.924463
0.859713
0.79515
0.730772
0.666573
0.602545
0.538675
0.474951
0.411357
0.347877
0.284494
0.221191
0.157949
0.0947517
0.031581
1.25082
1.18543
1.12015
1.055
0.989983
0.925116
0.860408
0.795865
0.731486
0.66727
0.603209
0.539295
0.475517
0.41186
0.348311
0.284855
0.221474
0.158153
0.0948747
0.0316221
1.2508
1.18556
1.12041
1.05536
0.990418
0.925608
0.860937
0.796412
0.732037
0.66781
0.603726
0.539779
0.475959
0.412254
0.348652
0.285138
0.221697
0.158314
0.0949718
0.0316545
1.2507
1.18561
1.12057
1.0556
0.990722
0.925957
0.861317
0.796809
0.732437
0.668204
0.604104
0.540134
0.476284
0.412545
0.348904
0.285348
0.221863
0.158433
0.0950439
0.0316786
1.25056
1.18559
1.12064
1.05574
0.990912
0.926181
0.861562
0.797066
0.732698
0.668461
0.604352
0.540367
0.476498
0.412736
0.34907
0.285486
0.221972
0.158512
0.0950914
0.0316945
1.25042
1.18556
1.12067
1.0558
0.991002
0.926288
0.861681
0.797191
0.732826
0.668587
0.604474
0.540482
0.476604
0.412831
0.349152
0.285555
0.222026
0.158551
0.095115
0.0317024
2.09106
2.00048
1.91051
1.8215
1.7337
1.64726
1.56211
1.47787
1.39352
1.30667
2.09029
1.99804
1.90647
1.81598
1.72689
1.63942
1.55362
1.46944
1.38666
1.30544
2.08968
1.99606
1.90321
1.81157
1.72155
1.63345
1.54754
1.46404
1.38338
1.30663
2.08922
1.99451
1.90065
1.80816
1.71751
1.62912
1.54339
1.46079
1.382
1.30818
2.08889
1.99334
1.89874
1.80564
1.7146
1.62612
1.54073
1.45899
1.38165
1.30964
2.08868
1.99252
1.89738
1.80388
1.71264
1.62421
1.53919
1.45818
1.38185
1.31093
2.08857
1.99199
1.8965
1.80277
1.71145
1.62315
1.53848
1.45803
1.38238
1.31207
2.08854
1.9917
1.89601
1.80218
1.71088
1.62274
1.53837
1.45832
1.38309
1.31308
2.08859
1.99162
1.89586
1.80202
1.7108
1.62283
1.53871
1.45893
1.38392
1.31398
2.08869
1.99171
1.89596
1.80219
1.71109
1.62329
1.53935
1.45974
1.3848
1.31478
2.08883
1.99192
1.89627
1.80261
1.71166
1.62402
1.54022
1.46068
1.38571
1.31548
2.089
1.99223
1.89672
1.80322
1.71242
1.62493
1.54122
1.4617
1.38661
1.3161
2.08919
1.9926
1.89727
1.80396
1.71332
1.62595
1.54231
1.46274
1.38747
1.31662
2.08939
1.99301
1.89789
1.80476
1.7143
1.62704
1.54342
1.46378
1.38829
1.31705
2.08959
1.99343
1.89853
1.8056
1.71529
1.62813
1.54453
1.46477
1.38904
1.31739
2.08978
1.99385
1.89916
1.80641
1.71625
1.62917
1.54557
1.4657
1.3897
1.31763
2.08995
1.99423
1.89974
1.80717
1.71713
1.63013
1.54651
1.46652
1.39026
1.31778
2.0901
1.99456
1.90023
1.80781
1.71789
1.63094
1.54731
1.46721
1.39072
1.31783
2.0902
1.9948
1.9006
1.80829
1.71846
1.63156
1.54792
1.46773
1.39105
1.31781
2.09026
1.99494
1.90082
1.80857
1.71878
1.6319
1.54826
1.46803
1.39123
1.31776
2.95285
2.93099
2.90726
2.88406
2.86238
2.84273
2.82554
2.81132
2.80074
2.79476
2.86564
2.84906
2.83103
2.81266
2.79483
2.7782
2.76338
2.75096
2.74165
2.73635
2.78225
2.7682
2.75348
2.73851
2.72382
2.70994
2.6974
2.68678
2.67876
2.67418
2.69929
2.68715
2.6748
2.6624
2.65026
2.63875
2.62829
2.61938
2.61261
2.60873
2.61557
2.60521
2.59486
2.58461
2.57465
2.56521
2.55663
2.5493
2.54372
2.54051
2.5307
2.52211
2.51363
2.50533
2.49732
2.48977
2.48291
2.47705
2.47258
2.47001
2.44461
2.43782
2.4312
2.42476
2.41858
2.41278
2.40753
2.40305
2.39963
2.39766
2.35741
2.35249
2.34772
2.34311
2.33871
2.3346
2.33088
2.32771
2.32529
2.3239
2.26936
2.26636
2.26346
2.26068
2.25802
2.25555
2.25332
2.25142
2.24998
2.24914
2.18076
2.17971
2.17871
2.17774
2.17683
2.17598
2.17521
2.17456
2.17407
2.17378
3.29911
3.26919
3.2401
3.21214
3.18569
3.16126
3.13947
3.12113
3.10731
3.09943
3.29414
3.26411
3.23491
3.20683
3.18029
3.15578
3.13393
3.11555
3.10171
3.09383
3.28422
3.25395
3.22451
3.19621
3.16947
3.14481
3.12285
3.10441
3.09053
3.08264
3.26939
3.2387
3.20884
3.18018
3.15315
3.12826
3.10616
3.08764
3.07374
3.06584
3.24962
3.21826
3.18778
3.1586
3.13118
3.10603
3.08379
3.06521
3.05131
3.04342
3.22486
3.19245
3.16108
3.13121
3.10333
3.07794
3.05561
3.03706
3.02323
3.0154
3.19484
3.16083
3.12823
3.09757
3.06927
3.04376
3.02151
3.00314
2.9895
2.9818
3.15889
3.12247
3.08834
3.05695
3.0285
3.00321
2.98136
2.96344
2.95019
2.94273
3.11514
3.07522
3.03976
3.00833
2.9805
2.95608
2.93515
2.91805
2.90544
2.89834
3.05707
3.01427
2.97995
2.95064
2.92494
2.9024
2.88305
2.8672
2.8555
2.8489
4.19508
4.14447
4.09351
4.04235
3.99117
3.94014
3.8894
3.83913
3.78948
3.74062
3.69271
3.64591
3.60037
3.55627
3.51374
3.47295
3.43402
3.39707
3.36221
3.32948
4.19669
4.14577
4.09447
4.04298
3.99146
3.94008
3.88899
3.83836
3.78834
3.73911
3.69081
3.64361
3.59767
3.55316
3.51024
3.46908
3.42981
3.39257
3.35747
3.32459
4.19989
4.14833
4.09639
4.04424
3.99206
3.94
3.88823
3.8369
3.78617
3.7362
3.68714
3.63916
3.59243
3.54712
3.50341
3.46148
3.42151
3.38366
3.34807
3.31486
4.20458
4.15209
4.09921
4.04612
3.99298
3.93997
3.88722
3.8349
3.78315
3.73212
3.68196
3.63285
3.58495
3.53845
3.49355
3.45045
3.40937
3.37053
3.33414
3.30037
4.21064
4.15693
4.10284
4.04856
3.99424
3.94004
3.88609
3.83255
3.77954
3.7272
3.67567
3.62512
3.57572
3.52766
3.48114
3.43642
3.39377
3.35349
3.31586
3.28118
4.21784
4.16266
4.10715
4.05148
3.99581
3.94027
3.88499
3.83007
3.77565
3.72182
3.66874
3.61652
3.56534
3.51538
3.46685
3.42004
3.37527
3.33294
3.29349
3.25738
4.22587
4.16901
4.11192
4.05476
3.99766
3.94072
3.88404
3.82771
3.77181
3.71644
3.6617
3.60769
3.55455
3.50243
3.45154
3.40216
3.35464
3.30948
3.26733
3.22897
4.23432
4.17562
4.11687
4.05821
3.99969
3.94139
3.88337
3.82567
3.76835
3.71147
3.6551
3.5993
3.54415
3.48976
3.43628
3.38391
3.33299
3.28403
3.23789
3.19583
4.24259
4.18199
4.12166
4.06159
4.00179
3.94228
3.88305
3.82414
3.76556
3.70732
3.64947
3.59201
3.53498
3.47839
3.42229
3.36675
3.31191
3.25812
3.20612
3.15765
4.24993
4.18758
4.12589
4.06467
4.00384
3.94334
3.88315
3.82325
3.76364
3.7043
3.64522
3.58638
3.52775
3.46926
3.41084
3.35236
3.29362
3.23439
3.17449
3.11451
4.25497
4.19164
4.12912
4.06718
4.00567
3.94452
3.88367
3.82309
3.76274
3.70259
3.64259
3.5827
3.52282
3.46284
3.40257
3.34172
3.27977
3.21576
3.14749
3.06894
4.25849
4.19474
4.13169
4.06919
4.00711
3.94538
3.88393
3.8227
3.76165
3.70072
3.63985
3.57895
3.5179
3.45654
3.39463
3.33179
3.26741
3.20049
3.12931
3.05111
4.26111
4.19713
4.13371
4.07077
4.00821
3.94597
3.88396
3.82214
3.76044
3.6988
3.63713
3.57534
3.51329
3.45081
3.38762
3.32339
3.25758
3.18948
3.11816
3.04275
4.26308
4.19894
4.13526
4.07197
4.00901
3.94631
3.88382
3.82146
3.75918
3.69691
3.63455
3.572
3.50913
3.44576
3.38167
3.31655
3.25003
3.18167
3.11106
3.03806
4.26455
4.20029
4.1364
4.07284
4.00954
3.94646
3.88353
3.82071
3.75792
3.6951
3.63215
3.56898
3.50546
3.44144
3.37672
3.3111
3.2443
3.17611
3.10635
3.03512
4.26562
4.20128
4.13723
4.07343
4.00985
3.94644
3.88315
3.81993
3.7567
3.69342
3.62998
3.56631
3.5023
3.4378
3.37269
3.30679
3.23996
3.17208
3.1031
3.03315
4.26639
4.20198
4.1378
4.07381
4.01
3.94631
3.88271
3.81914
3.75555
3.69188
3.62805
3.56399
3.4996
3.43478
3.36942
3.30341
3.23666
3.16912
3.10079
3.03179
4.26691
4.20245
4.13816
4.07402
4.01001
3.94609
3.88223
3.81838
3.75449
3.6905
3.62636
3.562
3.49733
3.43229
3.36679
3.30076
3.23414
3.16692
3.09911
3.03084
4.26726
4.20275
4.13837
4.0741
4.00993
3.94582
3.88174
3.81765
3.75351
3.68928
3.62489
3.5603
3.49544
3.43026
3.36468
3.29868
3.23221
3.16527
3.09789
3.03016
4.26746
4.20291
4.13846
4.07409
4.00978
3.94551
3.88126
3.81698
3.75264
3.68821
3.62363
3.55887
3.49387
3.4286
3.363
3.29705
3.23072
3.16403
3.097
3.0297
4.26755
4.20298
4.13847
4.07401
4.0096
3.9452
3.8808
3.81637
3.75187
3.68728
3.62256
3.55768
3.49258
3.42725
3.36166
3.29577
3.22958
3.1631
3.09635
3.02939
4.26758
4.20298
4.13842
4.07389
4.00939
3.94489
3.88037
3.81582
3.7512
3.68649
3.62166
3.55668
3.49153
3.42617
3.36059
3.29477
3.22871
3.16241
3.0959
3.0292
4.26755
4.20293
4.13833
4.07375
4.00918
3.94459
3.87998
3.81533
3.75062
3.68582
3.62091
3.55587
3.49067
3.42531
3.35975
3.294
3.22805
3.16191
3.09559
3.02912
4.26749
4.20286
4.13823
4.0736
4.00897
3.94432
3.87964
3.81491
3.75012
3.68525
3.62029
3.5552
3.48999
3.42462
3.3591
3.29342
3.22757
3.16156
3.0954
3.02912
4.26741
4.20277
4.13812
4.07346
4.00878
3.94408
3.87934
3.81456
3.74971
3.68479
3.61979
3.55467
3.48945
3.42409
3.35861
3.29298
3.22722
3.16133
3.09532
3.0292
4.26734
4.20268
4.13801
4.07333
4.00862
3.94388
3.8791
3.81427
3.74938
3.68443
3.61939
3.55426
3.48903
3.42369
3.35823
3.29267
3.22698
3.1612
3.09531
3.02934
4.26726
4.2026
4.13792
4.07321
4.00848
3.94371
3.8789
3.81404
3.74912
3.68414
3.61908
3.55394
3.48871
3.42339
3.35796
3.29244
3.22683
3.16114
3.09537
3.02953
4.2672
4.20254
4.13784
4.07312
4.00837
3.94358
3.87875
3.81387
3.74893
3.68393
3.61886
3.55372
3.48849
3.42318
3.35778
3.2923
3.22674
3.16112
3.09546
3.02976
4.26716
4.20249
4.13779
4.07306
4.0083
3.9435
3.87865
3.81376
3.74881
3.6838
3.61872
3.55357
3.48835
3.42304
3.35766
3.29221
3.2267
3.16114
3.09556
3.02999
4.26714
4.20246
4.13776
4.07303
4.00826
3.94345
3.8786
3.8137
3.74875
3.68373
3.61865
3.5535
3.48828
3.42298
3.3576
3.29217
3.22667
3.16115
3.09562
3.03016
2.96601
2.87935
2.79511
2.71091
2.62577
2.5393
2.45147
2.36242
2.27243
2.18184
2.96783
2.88667
2.80392
2.71972
2.63389
2.54635
2.4572
2.36666
2.27505
2.18278
2.96725
2.89045
2.80973
2.72616
2.64015
2.55196
2.46184
2.37013
2.27722
2.18357
2.9663
2.89234
2.81342
2.73068
2.64481
2.55628
2.4655
2.37291
2.27898
2.18423
2.96542
2.89321
2.81566
2.73372
2.64813
2.55948
2.46828
2.37505
2.28036
2.18477
2.9647
2.89351
2.81692
2.73565
2.65038
2.56174
2.4703
2.37666
2.28141
2.1852
2.96411
2.89348
2.81751
2.73675
2.65179
2.56323
2.47169
2.37779
2.28217
2.18553
2.96362
2.89324
2.81764
2.73723
2.65253
2.5641
2.47255
2.37852
2.2827
2.18579
2.96322
2.89286
2.81744
2.73727
2.65277
2.56448
2.47298
2.37893
2.28301
2.18597
2.96288
2.8924
2.81702
2.73697
2.65263
2.56448
2.47308
2.37907
2.28316
2.1861
2.9626
2.89189
2.81643
2.73643
2.65221
2.56419
2.47291
2.379
2.28318
2.18618
2.96237
2.89135
2.81575
2.73573
2.65158
2.56368
2.47254
2.37878
2.28309
2.18623
2.96219
2.8908
2.815
2.73492
2.65081
2.56302
2.47203
2.37844
2.28292
2.18624
2.96206
2.89027
2.81423
2.73405
2.64995
2.56226
2.47143
2.37802
2.2827
2.18623
2.96198
2.88976
2.81346
2.73317
2.64907
2.56146
2.47078
2.37756
2.28245
2.1862
2.96195
2.8893
2.81272
2.7323
2.64819
2.56067
2.47012
2.37709
2.28219
2.18616
2.96197
2.88889
2.81205
2.7315
2.64738
2.55992
2.4695
2.37664
2.28194
2.18612
2.96204
2.88855
2.81147
2.73081
2.64667
2.55927
2.46897
2.37625
2.28172
2.18608
2.96214
2.8883
2.81102
2.73028
2.64613
2.55877
2.46856
2.37595
2.28155
2.18605
2.96222
2.88815
2.81076
2.72997
2.64582
2.55849
2.46832
2.37578
2.28145
2.18603
)
;

boundaryField
{
    down
    {
        type            symmetryPlane;
    }
    right
    {
        type            fixedValue;
        value           uniform 0;
    }
    up
    {
        type            symmetryPlane;
    }
    left
    {
        type            zeroGradient;
    }
    cylinder
    {
        type            symmetry;
    }
    defaultFaces
    {
        type            empty;
    }
}


// ************************************************************************* //
