/*--------------------------------*- C++ -*----------------------------------*\
| =========                 |                                                 |
| \\      /  F ield         | OpenFOAM: The Open Source CFD Toolbox           |
|  \\    /   O peration     | Version:  2512                                  |
|   \\  /    A nd           | Website:  www.openfoam.com                      |
|    \\/     M anipulation  |                                                 |
\*---------------------------------------------------------------------------*/
FoamFile
{
    version     2.0;
    format      ascii;
    arch        "LSB;label=32;scalar=64";
    class       pointScalarField;
    location    "0";
    object      streamFunction;
}
// * * * * * * * * * * * * * * * * * * * * * * * * * * * * * * * * * * * * * //

dimensions      [0 3 -1 0 0 0 0];

internalField   nonuniform List<scalar> 
4222
(
0
0
0.0610115
0.118315
0.172926
0.225699
0.277467
0.329234
0.382548
0.440346
0.508996
0
0
0.0657819
0.127601
0.186554
0.243537
0.299351
0.354772
0.410556
0.467258
0.52448
-0.0711988
0.00454455
0.0745008
0.140185
0.202709
0.262929
0.321515
0.378978
0.43563
0.49148
0.546089
-0.0711944
0.00847121
0.0819991
0.150926
0.216354
0.279094
0.339729
0.398653
0.456067
0.51199
0.566267
-0.0711933
0.0117913
0.0883158
0.159926
0.227717
0.292475
0.354753
0.414925
0.473206
0.529703
0.584432
-0.0711899
0.0145317
0.0935187
0.167319
0.237025
0.303424
0.367072
0.428362
0.487552
0.544826
0.600291
-0.0711892
0.0167243
0.097677
0.173221
0.244455
0.312177
0.376961
0.439231
0.499283
0.557356
0.613611
-0.0711852
0.0183973
0.10085
0.177726
0.250131
0.31888
0.384566
0.447643
0.508434
0.567219
0.624191
-0.0711838
0.0195735
0.103082
0.180897
0.254131
0.323615
0.389957
0.453634
0.514988
0.574323
0.631856
-0.071178
0.0202678
0.104402
0.182773
0.2565
0.326424
0.393161
0.457204
0.518906
0.578584
0.636474
-0.0711748
0.0204895
0.104825
0.183376
0.257261
0.327325
0.394188
0.458348
0.520159
0.579944
0.637943
0
0
0.0610115
0.118315
0.172926
0.225699
0.277467
0.329234
0.382548
0.440346
0.508996
0
0
0.0657819
0.127601
0.186554
0.243537
0.299351
0.354772
0.410556
0.467258
0.52448
-0.0711988
0.00454455
0.0745008
0.140185
0.202709
0.262929
0.321515
0.378978
0.43563
0.49148
0.546089
-0.0711944
0.00847121
0.0819991
0.150926
0.216354
0.279094
0.339729
0.398653
0.456067
0.51199
0.566267
-0.0711933
0.0117913
0.0883158
0.159926
0.227717
0.292475
0.354753
0.414925
0.473206
0.529703
0.584432
-0.0711899
0.0145317
0.0935187
0.167319
0.237025
0.303424
0.367072
0.428362
0.487552
0.544826
0.600291
-0.0711892
0.0167243
0.097677
0.173221
0.244455
0.312177
0.376961
0.439231
0.499283
0.557356
0.613611
-0.0711852
0.0183973
0.10085
0.177726
0.250131
0.31888
0.384566
0.447643
0.508434
0.567219
0.624191
-0.0711838
0.0195735
0.103082
0.180897
0.254131
0.323615
0.389957
0.453634
0.514988
0.574323
0.631856
-0.071178
0.0202678
0.104402
0.182773
0.2565
0.326424
0.393161
0.457204
0.518906
0.578584
0.636474
-0.0711748
0.0204895
0.104825
0.183376
0.257261
0.327325
0.394188
0.458348
0.520159
0.579944
0.637943
0
-0.0660777
-0.0660855
-0.0660835
-0.0660602
-0.0660382
-0.0659981
-0.0659792
-0.0659372
-0.0659281
-0.0658924
-0.0660777
-0.059213
-0.0529581
-0.0472098
-0.0418975
-0.0369943
-0.032445
-0.0282532
-0.0243476
-0.0207489
-0.0173704
-0.0660701
-0.0523418
-0.0398145
-0.0283046
-0.0176813
-0.0078711
0.0012131
0.0095991
0.0173803
0.0245682
0.0312735
-0.0660663
-0.0454638
-0.0266477
-0.0093451
0.0066347
0.0214083
0.0350862
0.0477187
0.05941
0.0701961
0.0802044
-0.0660625
-0.0385862
-0.0134642
0.0096737
0.0310809
0.0509117
0.0692901
0.0862723
0.101955
0.11638
0.129678
-0.0660607
-0.0317294
-0.0002962
0.0287232
0.0556517
0.0806805
0.103936
0.125457
0.145303
0.163483
0.180104
-0.066059
-0.0249337
0.0127859
0.0477198
0.0802764
0.110692
0.139094
0.165484
0.189832
0.212051
0.232141
-0.06606
-0.0182638
0.02566
0.0664977
0.104771
0.140792
0.174715
0.206508
0.236008
0.262901
0.286885
-0.0660606
-0.01181
0.0381467
0.0847851
0.128779
0.170579
0.210448
0.248418
0.284246
0.317261
0.346354
-0.0660604
-0.00568356
0.050014
0.102203
0.151739
0.199275
0.245333
0.290288
0.334271
0.376725
0.415185
0
-0.0660777
-0.0660855
-0.0660835
-0.0660602
-0.0660382
-0.0659981
-0.0659792
-0.0659372
-0.0659281
-0.0658924
-0.0660777
-0.059213
-0.0529581
-0.0472098
-0.0418975
-0.0369943
-0.032445
-0.0282532
-0.0243476
-0.0207489
-0.0173704
-0.0660701
-0.0523418
-0.0398145
-0.0283046
-0.0176813
-0.0078711
0.0012131
0.0095991
0.0173803
0.0245682
0.0312735
-0.0660663
-0.0454638
-0.0266477
-0.0093451
0.0066347
0.0214083
0.0350862
0.0477187
0.05941
0.0701961
0.0802044
-0.0660625
-0.0385862
-0.0134642
0.0096737
0.0310809
0.0509117
0.0692901
0.0862723
0.101955
0.11638
0.129678
-0.0660607
-0.0317294
-0.0002962
0.0287232
0.0556517
0.0806805
0.103936
0.125457
0.145303
0.163483
0.180104
-0.066059
-0.0249337
0.0127859
0.0477198
0.0802764
0.110692
0.139094
0.165484
0.189832
0.212051
0.232141
-0.06606
-0.0182638
0.02566
0.0664977
0.104771
0.140792
0.174715
0.206508
0.236008
0.262901
0.286885
-0.0660606
-0.01181
0.0381467
0.0847851
0.128779
0.170579
0.210448
0.248418
0.284246
0.317261
0.346354
-0.0660604
-0.00568356
0.050014
0.102203
0.151739
0.199275
0.245333
0.290288
0.334271
0.376725
0.415185
-0.0658921
-0.0658894
-0.0658895
-0.0658866
-0.065887
-0.0658841
-0.0658847
-0.0658818
-0.0658829
-0.06588
-0.0658813
-0.0658786
-0.0658802
-0.0658776
-0.0658795
-0.0658769
-0.0658791
-0.0658767
-0.0658795
0.391133
-0.0141168
-0.0109314
-0.00786457
-0.00495769
-0.00224147
0.00026303
0.00254408
0.00459717
0.00642409
0.00803068
0.00942619
0.0106215
0.0116289
0.0124609
0.0131307
0.0136508
0.014034
0.0142924
0.014438
0.471494
0.0378808
0.0443265
0.0505068
0.056339
0.0617641
0.0667442
0.0712607
0.0753098
0.0788996
0.0820461
0.0847708
0.0870981
0.0890543
0.0906658
0.0919596
0.0929614
0.0936971
0.0941914
0.0944685
0.391444
0.0903706
0.100225
0.109605
0.118388
0.126493
0.133877
0.140525
0.146445
0.151662
0.15621
0.160128
0.163461
0.166249
0.168537
0.170366
0.171776
0.172805
0.173492
0.173874
0.470863
0.14373
0.157216
0.169908
0.18165
0.192358
0.202002
0.210595
0.218176
0.224801
0.230534
0.235441
0.239589
0.243041
0.245857
0.248095
0.24981
0.251052
0.251874
0.252325
0.549318
0.198518
0.21593
0.23204
0.246686
0.259818
0.271466
0.281702
0.290624
0.298341
0.304958
0.310577
0.315293
0.319193
0.322354
0.32485
0.326748
0.328111
0.329001
0.32948
0.472169
0.255604
0.277285
0.296841
0.31418
0.329378
0.342592
0.354008
0.363819
0.372203
0.379319
0.385311
0.390301
0.394399
0.3977
0.400289
0.402242
0.403632
0.404527
0.404999
0.547672
0.316395
0.342654
0.365434
0.384939
0.401537
0.415624
0.427562
0.437662
0.446183
0.453341
0.459314
0.464254
0.468284
0.471513
0.474032
0.475924
0.47726
0.478112
0.478552
0.621212
0.383344
0.414106
0.439251
0.459797
0.476677
0.490631
0.502223
0.511879
0.519926
0.526619
0.532161
0.536716
0.540416
0.543373
0.545681
0.547417
0.54865
0.54944
0.549849
0.549906
0.461064
0.49464
0.519849
0.539372
0.55487
0.567386
0.577609
0.586012
0.592941
0.598656
0.603359
0.607211
0.610342
0.612856
0.614841
0.616366
0.617488
0.618247
0.618676
0.618797
0.558289
0.587676
0.608146
0.623562
0.635642
0.645296
0.653108
0.659466
0.664667
0.668926
0.672424
0.675294
0.677657
0.679596
0.681192
0.682495
0.68355
0.684372
0.684959
0.68525
-0.0658921
-0.0658894
-0.0658895
-0.0658866
-0.065887
-0.0658841
-0.0658847
-0.0658818
-0.0658829
-0.06588
-0.0658813
-0.0658786
-0.0658802
-0.0658776
-0.0658795
-0.0658769
-0.0658791
-0.0658767
-0.0658795
0.391133
-0.0141168
-0.0109314
-0.00786457
-0.00495769
-0.00224147
0.00026303
0.00254408
0.00459717
0.00642409
0.00803068
0.00942619
0.0106215
0.0116289
0.0124609
0.0131307
0.0136508
0.014034
0.0142924
0.014438
0.471494
0.0378808
0.0443265
0.0505068
0.056339
0.0617641
0.0667442
0.0712607
0.0753098
0.0788996
0.0820461
0.0847708
0.0870981
0.0890543
0.0906658
0.0919596
0.0929614
0.0936971
0.0941914
0.0944685
0.391444
0.0903706
0.100225
0.109605
0.118388
0.126493
0.133877
0.140525
0.146445
0.151662
0.15621
0.160128
0.163461
0.166249
0.168537
0.170366
0.171776
0.172805
0.173492
0.173874
0.470863
0.14373
0.157216
0.169908
0.18165
0.192358
0.202002
0.210595
0.218176
0.224801
0.230534
0.235441
0.239589
0.243041
0.245857
0.248095
0.24981
0.251052
0.251874
0.252325
0.549318
0.198518
0.21593
0.23204
0.246686
0.259818
0.271466
0.281702
0.290624
0.298341
0.304958
0.310577
0.315293
0.319193
0.322354
0.32485
0.326748
0.328111
0.329001
0.32948
0.472169
0.255604
0.277285
0.296841
0.31418
0.329378
0.342592
0.354008
0.363819
0.372203
0.379319
0.385311
0.390301
0.394399
0.3977
0.400289
0.402242
0.403632
0.404527
0.404999
0.547672
0.316395
0.342654
0.365434
0.384939
0.401537
0.415624
0.427562
0.437662
0.446183
0.453341
0.459314
0.464254
0.468284
0.471513
0.474032
0.475924
0.47726
0.478112
0.478552
0.621212
0.383344
0.414106
0.439251
0.459797
0.476677
0.490631
0.502223
0.511879
0.519926
0.526619
0.532161
0.536716
0.540416
0.543373
0.545681
0.547417
0.54865
0.54944
0.549849
0.549906
0.461064
0.49464
0.519849
0.539372
0.55487
0.567386
0.577609
0.586012
0.592941
0.598656
0.603359
0.607211
0.610342
0.612856
0.614841
0.616366
0.617488
0.618247
0.618676
0.618797
0.558289
0.587676
0.608146
0.623562
0.635642
0.645296
0.653108
0.659466
0.664667
0.668926
0.672424
0.675294
0.677657
0.679596
0.681192
0.682495
0.68355
0.684372
0.684959
0.68525
0.618229
0.636872
0.655918
0.67211
0.685445
0.696418
0.705471
0.712972
0.719195
0.724371
0.728672
0.732249
0.735216
0.737677
0.739706
0.741371
0.742715
0.743777
0.744565
0.745075
0.625232
0.705962
0.715051
0.727023
0.738924
0.749696
0.759111
0.767201
0.77411
0.779975
0.784947
0.789143
0.792681
0.795646
0.798127
0.800181
0.801868
0.80322
0.804274
0.805037
0.805507
0.685634
0.784961
0.790346
0.798209
0.806858
0.815309
0.823122
0.830119
0.836286
0.841652
0.846293
0.850275
0.853679
0.856565
0.858999
0.861025
0.862694
0.864029
0.865061
0.865799
0.866244
0.746359
0.859556
0.863166
0.868614
0.874985
0.881568
0.887945
0.893873
0.899257
0.904058
0.908294
0.911989
0.915192
0.917937
0.920273
0.92223
0.923847
0.925142
0.926141
0.926851
0.927276
0.685335
0.931543
0.934149
0.938102
0.942891
0.948038
0.953212
0.958176
0.962808
0.967032
0.970832
0.974199
0.977157
0.97972
0.981921
0.983777
0.985318
0.986554
0.987509
0.988185
0.98859
0.746641
1.00181
1.00378
1.00676
1.01043
1.01449
1.01869
1.02282
1.02676
1.03044
1.0338
1.03682
1.03951
1.04187
1.04391
1.04564
1.04709
1.04825
1.04915
1.04979
1.05017
0.808215
1.07088
1.07242
1.07471
1.07758
1.08081
1.08422
1.08765
1.09099
1.09415
1.0971
1.09978
1.1022
1.10433
1.1062
1.1078
1.10913
1.11021
1.11105
1.11165
1.112
0.74639
1.13907
1.14029
1.14209
1.14436
1.14695
1.14973
1.15257
1.15539
1.1581
1.16065
1.16301
1.16516
1.16707
1.16876
1.17021
1.17143
1.17242
1.17319
1.17374
1.17407
0.808449
1.2066
1.20757
1.20901
1.21082
1.21291
1.21518
1.21753
1.2199
1.2222
1.2244
1.22645
1.22834
1.23004
1.23155
1.23285
1.23396
1.23485
1.23556
1.23606
1.23636
0.870724
1.27362
1.2744
1.27554
1.277
1.27868
1.28054
1.28248
1.28446
1.28641
1.2883
1.29007
1.29171
1.2932
1.29454
1.29569
1.29668
1.29749
1.29812
1.29857
1.29884
0.808252
1.34025
1.34086
1.34177
1.34293
1.34429
1.34581
1.34741
1.34906
1.3507
1.3523
1.35381
1.35523
1.35653
1.35769
1.35871
1.35958
1.36029
1.36085
1.36125
1.36149
0.8709
1.40656
1.40703
1.40774
1.40866
1.40975
1.41098
1.41229
1.41366
1.41503
1.41637
1.41766
1.41887
1.41999
1.42099
1.42187
1.42263
1.42325
1.42375
1.4241
1.42431
0.933706
1.47262
1.47295
1.4735
1.47422
1.47508
1.47607
1.47713
1.47825
1.47938
1.48051
1.48159
1.48261
1.48355
1.48441
1.48516
1.48582
1.48635
1.48677
1.48708
1.48726
0.870763
1.53845
1.53867
1.53907
1.53962
1.54029
1.54108
1.54193
1.54283
1.54376
1.54468
1.54557
1.54642
1.54721
1.54792
1.54856
1.54911
1.54956
1.54992
1.55018
1.55033
0.933825
1.60411
1.60421
1.60449
1.60489
1.6054
1.60601
1.60668
1.6074
1.60813
1.60888
1.6096
1.61029
1.61093
1.61152
1.61204
1.61249
1.61286
1.61316
1.61337
1.6135
0.996986
1.66959
1.6696
1.66976
1.67005
1.67042
1.67088
1.67139
1.67194
1.67251
1.67309
1.67366
1.6742
1.67471
1.67517
1.67559
1.67595
1.67624
1.67648
1.67665
1.67676
0.933742
1.7349
1.73483
1.73492
1.7351
1.73536
1.73569
1.73606
1.73647
1.73689
1.73732
1.73774
1.73815
1.73853
1.73888
1.73919
1.73946
1.73968
1.73986
1.73999
1.74007
0.997051
1.80005
1.79993
1.79996
1.80007
1.80023
1.80045
1.8007
1.80097
1.80126
1.80155
1.80184
1.80212
1.80238
1.80262
1.80283
1.80302
1.80317
1.80329
1.80338
1.80344
0.933694
1.865
1.86489
1.86491
1.86497
1.86506
1.86518
1.86532
1.86547
1.86563
1.86579
1.86595
1.86611
1.86625
1.86638
1.8665
1.8666
1.86668
1.86675
1.8668
1.86684
0.997083
1.92971
1.92975
1.9298
1.92984
1.92986
1.92989
1.92992
1.92996
1.92999
1.93003
1.93006
1.9301
1.93013
1.93015
1.93018
1.9302
1.93021
1.93023
1.93024
1.93025
1.06049
0.618229
0.636872
0.655918
0.67211
0.685445
0.696418
0.705471
0.712972
0.719195
0.724371
0.728672
0.732249
0.735216
0.737677
0.739706
0.741371
0.742715
0.743777
0.744565
0.745075
0.625232
0.705962
0.715051
0.727023
0.738924
0.749696
0.759111
0.767201
0.77411
0.779975
0.784947
0.789143
0.792681
0.795646
0.798127
0.800181
0.801868
0.80322
0.804274
0.805037
0.805507
0.685634
0.784961
0.790346
0.798209
0.806858
0.815309
0.823122
0.830119
0.836286
0.841652
0.846293
0.850275
0.853679
0.856565
0.858999
0.861025
0.862694
0.864029
0.865061
0.865799
0.866244
0.746359
0.859556
0.863166
0.868614
0.874985
0.881568
0.887945
0.893873
0.899257
0.904058
0.908294
0.911989
0.915192
0.917937
0.920273
0.92223
0.923847
0.925142
0.926141
0.926851
0.927276
0.685335
0.931543
0.934149
0.938102
0.942891
0.948038
0.953212
0.958176
0.962808
0.967032
0.970832
0.974199
0.977157
0.97972
0.981921
0.983777
0.985318
0.986554
0.987509
0.988185
0.98859
0.746641
1.00181
1.00378
1.00676
1.01043
1.01449
1.01869
1.02282
1.02676
1.03044
1.0338
1.03682
1.03951
1.04187
1.04391
1.04564
1.04709
1.04825
1.04915
1.04979
1.05017
0.808215
1.07088
1.07242
1.07471
1.07758
1.08081
1.08422
1.08765
1.09099
1.09415
1.0971
1.09978
1.1022
1.10433
1.1062
1.1078
1.10913
1.11021
1.11105
1.11165
1.112
0.74639
1.13907
1.14029
1.14209
1.14436
1.14695
1.14973
1.15257
1.15539
1.1581
1.16065
1.16301
1.16516
1.16707
1.16876
1.17021
1.17143
1.17242
1.17319
1.17374
1.17407
0.808449
1.2066
1.20757
1.20901
1.21082
1.21291
1.21518
1.21753
1.2199
1.2222
1.2244
1.22645
1.22834
1.23004
1.23155
1.23285
1.23396
1.23485
1.23556
1.23606
1.23636
0.870724
1.27362
1.2744
1.27554
1.277
1.27868
1.28054
1.28248
1.28446
1.28641
1.2883
1.29007
1.29171
1.2932
1.29454
1.29569
1.29668
1.29749
1.29812
1.29857
1.29884
0.808252
1.34025
1.34086
1.34177
1.34293
1.34429
1.34581
1.34741
1.34906
1.3507
1.3523
1.35381
1.35523
1.35653
1.35769
1.35871
1.35958
1.36029
1.36085
1.36125
1.36149
0.8709
1.40656
1.40703
1.40774
1.40866
1.40975
1.41098
1.41229
1.41366
1.41503
1.41637
1.41766
1.41887
1.41999
1.42099
1.42187
1.42263
1.42325
1.42375
1.4241
1.42431
0.933706
1.47262
1.47295
1.4735
1.47422
1.47508
1.47607
1.47713
1.47825
1.47938
1.48051
1.48159
1.48261
1.48355
1.48441
1.48516
1.48582
1.48635
1.48677
1.48708
1.48726
0.870763
1.53845
1.53867
1.53907
1.53962
1.54029
1.54108
1.54193
1.54283
1.54376
1.54468
1.54557
1.54642
1.54721
1.54792
1.54856
1.54911
1.54956
1.54992
1.55018
1.55033
0.933825
1.60411
1.60421
1.60449
1.60489
1.6054
1.60601
1.60668
1.6074
1.60813
1.60888
1.6096
1.61029
1.61093
1.61152
1.61204
1.61249
1.61286
1.61316
1.61337
1.6135
0.996986
1.66959
1.6696
1.66976
1.67005
1.67042
1.67088
1.67139
1.67194
1.67251
1.67309
1.67366
1.6742
1.67471
1.67517
1.67559
1.67595
1.67624
1.67648
1.67665
1.67676
0.933742
1.7349
1.73483
1.73492
1.7351
1.73536
1.73569
1.73606
1.73647
1.73689
1.73732
1.73774
1.73815
1.73853
1.73888
1.73919
1.73946
1.73968
1.73986
1.73999
1.74007
0.997051
1.80005
1.79993
1.79996
1.80007
1.80023
1.80045
1.8007
1.80097
1.80126
1.80155
1.80184
1.80212
1.80238
1.80262
1.80283
1.80302
1.80317
1.80329
1.80338
1.80344
0.933694
1.865
1.86489
1.86491
1.86497
1.86506
1.86518
1.86532
1.86547
1.86563
1.86579
1.86595
1.86611
1.86625
1.86638
1.8665
1.8666
1.86668
1.86675
1.8668
1.86684
0.997083
1.92971
1.92975
1.9298
1.92984
1.92986
1.92989
1.92992
1.92996
1.92999
1.93003
1.93006
1.9301
1.93013
1.93015
1.93018
1.9302
1.93021
1.93023
1.93024
1.93025
1.06049
0.695904
0.694706
0.690871
0.684545
0.675908
0.665228
0.652886
0.639473
0.626061
0.615068
0.755242
0.754298
0.751192
0.746109
0.739264
0.730988
0.721771
0.712369
0.704034
0.698964
0.81578
0.815067
0.812625
0.808669
0.803428
0.797257
0.79067
0.784406
0.77953
0.777488
0.877347
0.876841
0.87499
0.872031
0.868186
0.863796
0.859331
0.855412
0.852802
0.852303
0.939789
0.939465
0.938128
0.93603
0.933368
0.930441
0.927639
0.925426
0.924285
0.924594
1.00297
1.0028
1.0019
1.00053
0.998844
0.997091
0.995563
0.994572
0.994387
0.99513
1.06676
1.06672
1.06618
1.06541
1.06452
1.06369
1.06312
1.063
1.06343
1.06441
1.13107
1.13114
1.13089
1.1306
1.13033
1.13021
1.13035
1.13084
1.13168
1.13278
1.1958
1.19595
1.19593
1.19602
1.19624
1.19665
1.1973
1.19821
1.19931
1.20046
1.26089
1.2611
1.26125
1.26163
1.26221
1.26301
1.26402
1.2652
1.26645
1.26761
1.32627
1.32653
1.3268
1.32738
1.32822
1.32929
1.33055
1.3319
1.33323
1.33436
1.39191
1.39219
1.39254
1.39326
1.39427
1.39551
1.39691
1.39836
1.39971
1.40078
1.45777
1.45807
1.45845
1.45925
1.46035
1.46168
1.46314
1.46462
1.46594
1.46695
1.52384
1.52413
1.52452
1.52533
1.52646
1.52781
1.52927
1.53071
1.53198
1.53289
1.59011
1.59038
1.59074
1.59152
1.59261
1.59391
1.5953
1.59667
1.59784
1.59865
1.65657
1.65682
1.65711
1.65781
1.6588
1.65999
1.66126
1.66249
1.66354
1.66424
1.72324
1.72345
1.72364
1.72422
1.72505
1.72606
1.72714
1.72819
1.72907
1.72965
1.79015
1.7903
1.79037
1.79077
1.79138
1.79213
1.79295
1.79375
1.79443
1.79486
1.85732
1.85741
1.85731
1.85748
1.85779
1.85821
1.85869
1.85916
1.85958
1.85985
1.92482
1.92481
1.92451
1.92438
1.92432
1.92431
1.92434
1.92439
1.92445
1.9245
0.695904
0.694706
0.690871
0.684545
0.675908
0.665228
0.652886
0.639473
0.626061
0.615068
0.755242
0.754298
0.751192
0.746109
0.739264
0.730988
0.721771
0.712369
0.704034
0.698964
0.81578
0.815067
0.812625
0.808669
0.803428
0.797257
0.79067
0.784406
0.77953
0.777488
0.877347
0.876841
0.87499
0.872031
0.868186
0.863796
0.859331
0.855412
0.852802
0.852303
0.939789
0.939465
0.938128
0.93603
0.933368
0.930441
0.927639
0.925426
0.924285
0.924594
1.00297
1.0028
1.0019
1.00053
0.998844
0.997091
0.995563
0.994572
0.994387
0.99513
1.06676
1.06672
1.06618
1.06541
1.06452
1.06369
1.06312
1.063
1.06343
1.06441
1.13107
1.13114
1.13089
1.1306
1.13033
1.13021
1.13035
1.13084
1.13168
1.13278
1.1958
1.19595
1.19593
1.19602
1.19624
1.19665
1.1973
1.19821
1.19931
1.20046
1.26089
1.2611
1.26125
1.26163
1.26221
1.26301
1.26402
1.2652
1.26645
1.26761
1.32627
1.32653
1.3268
1.32738
1.32822
1.32929
1.33055
1.3319
1.33323
1.33436
1.39191
1.39219
1.39254
1.39326
1.39427
1.39551
1.39691
1.39836
1.39971
1.40078
1.45777
1.45807
1.45845
1.45925
1.46035
1.46168
1.46314
1.46462
1.46594
1.46695
1.52384
1.52413
1.52452
1.52533
1.52646
1.52781
1.52927
1.53071
1.53198
1.53289
1.59011
1.59038
1.59074
1.59152
1.59261
1.59391
1.5953
1.59667
1.59784
1.59865
1.65657
1.65682
1.65711
1.65781
1.6588
1.65999
1.66126
1.66249
1.66354
1.66424
1.72324
1.72345
1.72364
1.72422
1.72505
1.72606
1.72714
1.72819
1.72907
1.72965
1.79015
1.7903
1.79037
1.79077
1.79138
1.79213
1.79295
1.79375
1.79443
1.79486
1.85732
1.85741
1.85731
1.85748
1.85779
1.85821
1.85869
1.85916
1.85958
1.85985
1.92482
1.92481
1.92451
1.92438
1.92432
1.92431
1.92434
1.92439
1.92445
1.9245
0.499702
0.431601
0.374499
0.321674
0.270339
0.218967
0.16656
0.112285
0.0552813
-0.00546354
-0.0711405
0.521122
0.464248
0.408073
0.352671
0.297611
0.242138
0.185478
0.12682
0.0652615
-0.000289638
-0.0711304
0.543381
0.489009
0.433577
0.377217
0.320041
0.261737
0.20179
0.139515
0.0740512
0.00428818
-0.0711299
0.564087
0.509988
0.454408
0.397216
0.338518
0.27811
0.215591
0.150368
0.0816196
0.0082516
-0.0711293
0.582702
0.528109
0.471891
0.41378
0.353785
0.291685
0.227102
0.159474
0.0880048
0.0116076
-0.0711355
0.598946
0.543585
0.486535
0.427474
0.366319
0.302809
0.236545
0.166964
0.0932708
0.0143827
-0.0711384
0.6126
0.556424
0.498522
0.438566
0.376397
0.311716
0.244094
0.172952
0.0974871
0.0166078
-0.0711472
0.62347
0.566556
0.507895
0.447172
0.384166
0.318554
0.249874
0.177534
0.100712
0.018312
-0.0711525
0.631392
0.5739
0.514643
0.453333
0.389702
0.323407
0.253966
0.180772
0.102992
0.0195178
-0.0711611
0.636242
0.578379
0.518739
0.457058
0.393037
0.326323
0.256419
0.182712
0.104358
0.0202407
-0.0711658
0.499702
0.431601
0.374499
0.321674
0.270339
0.218967
0.16656
0.112285
0.0552813
-0.00546354
-0.0711405
0.521122
0.464248
0.408073
0.352671
0.297611
0.242138
0.185478
0.12682
0.0652615
-0.000289638
-0.0711304
0.543381
0.489009
0.433577
0.377217
0.320041
0.261737
0.20179
0.139515
0.0740512
0.00428818
-0.0711299
0.564087
0.509988
0.454408
0.397216
0.338518
0.27811
0.215591
0.150368
0.0816196
0.0082516
-0.0711293
0.582702
0.528109
0.471891
0.41378
0.353785
0.291685
0.227102
0.159474
0.0880048
0.0116076
-0.0711355
0.598946
0.543585
0.486535
0.427474
0.366319
0.302809
0.236545
0.166964
0.0932708
0.0143827
-0.0711384
0.6126
0.556424
0.498522
0.438566
0.376397
0.311716
0.244094
0.172952
0.0974871
0.0166078
-0.0711472
0.62347
0.566556
0.507895
0.447172
0.384166
0.318554
0.249874
0.177534
0.100712
0.018312
-0.0711525
0.631392
0.5739
0.514643
0.453333
0.389702
0.323407
0.253966
0.180772
0.102992
0.0195178
-0.0711611
0.636242
0.578379
0.518739
0.457058
0.393037
0.326323
0.256419
0.182712
0.104358
0.0202407
-0.0711658
-0.0729634
-0.0728854
-0.0724982
-0.0723117
-0.0721716
-0.0720334
-0.0718919
-0.0717176
-0.0715105
-0.0712961
0
-0.0250391
-0.028209
-0.0313421
-0.0349473
-0.0389119
-0.0432235
-0.0479081
-0.052975
-0.0584701
-0.0644791
-0.0712646
0.0230459
0.0166323
0.00997559
0.00256277
-0.00553073
-0.0143206
-0.02386
-0.0341933
-0.0454118
-0.057663
-0.0712388
0.0714797
0.0618355
0.0516383
0.040376
0.0280955
0.0147628
0.000307159
-0.0153442
-0.0323225
-0.0508368
-0.0712161
0.120543
0.107667
0.0938773
0.0786737
0.0620941
0.0441043
0.0246312
0.00358432
-0.0192041
-0.044004
-0.0711937
0.17066
0.154504
0.136993
0.117665
0.0965862
0.0737534
0.0491136
0.0225683
-0.00608435
-0.0371833
-0.0711766
0.2225
0.202901
0.181376
0.15757
0.131651
0.103694
0.0736883
0.0415289
0.00696915
-0.0304126
-0.0711601
0.277161
0.253681
0.227496
0.198549
0.167243
0.133776
0.0981747
0.0603019
0.0198366
-0.0237555
-0.0711489
0.336663
0.308076
0.275776
0.2405
0.203018
0.163602
0.12222
0.0786171
0.0323366
-0.0173027
-0.0711412
0.405635
0.367687
0.325949
0.282501
0.238019
0.192394
0.145257
0.0960918
0.0442358
-0.0111657
-0.0711335
-0.0729634
-0.0728854
-0.0724982
-0.0723117
-0.0721716
-0.0720334
-0.0718919
-0.0717176
-0.0715105
-0.0712961
0
-0.0250391
-0.028209
-0.0313421
-0.0349473
-0.0389119
-0.0432235
-0.0479081
-0.052975
-0.0584701
-0.0644791
-0.0712646
0.0230459
0.0166323
0.00997559
0.00256277
-0.00553073
-0.0143206
-0.02386
-0.0341933
-0.0454118
-0.057663
-0.0712388
0.0714797
0.0618355
0.0516383
0.040376
0.0280955
0.0147628
0.000307159
-0.0153442
-0.0323225
-0.0508368
-0.0712161
0.120543
0.107667
0.0938773
0.0786737
0.0620941
0.0441043
0.0246312
0.00358432
-0.0192041
-0.044004
-0.0711937
0.17066
0.154504
0.136993
0.117665
0.0965862
0.0737534
0.0491136
0.0225683
-0.00608435
-0.0371833
-0.0711766
0.2225
0.202901
0.181376
0.15757
0.131651
0.103694
0.0736883
0.0415289
0.00696915
-0.0304126
-0.0711601
0.277161
0.253681
0.227496
0.198549
0.167243
0.133776
0.0981747
0.0603019
0.0198366
-0.0237555
-0.0711489
0.336663
0.308076
0.275776
0.2405
0.203018
0.163602
0.12222
0.0786171
0.0323366
-0.0173027
-0.0711412
0.405635
0.367687
0.325949
0.282501
0.238019
0.192394
0.145257
0.0960918
0.0442358
-0.0111657
-0.0711335
0.774266
-0.0730889
-0.0730825
-0.0730773
-0.0730726
-0.0730682
-0.0730638
-0.0730597
-0.0730557
-0.0730518
-0.0730481
-0.0730444
-0.0730407
-0.0730367
-0.0730325
-0.0730275
-0.0730218
-0.0730149
-0.0730068
-0.0729981
0.703555
-0.00123757
-0.000327859
0.00034733
0.000785963
0.000986715
0.000948165
0.000668305
0.00014428
-0.00062754
-0.00165128
-0.00293093
-0.00446949
-0.00626778
-0.00832299
-0.010627
-0.0131649
-0.015913
-0.0188383
-0.0218977
0.774266
0.0704152
0.0722359
0.0735908
0.074478
0.0748964
0.0748442
0.0743175
0.0733104
0.0718146
0.0698202
0.0673168
0.0642949
0.060749
0.0566798
0.0520982
0.047029
0.041515
0.0356195
0.0294277
0.703555
0.142056
0.144774
0.146803
0.148146
0.148804
0.148778
0.148061
0.146645
0.144515
0.141652
0.138034
0.13364
0.128449
0.122452
0.115649
0.108064
0.0997487
0.0907884
0.0813099
0.632845
0.213664
0.217242
0.219923
0.221719
0.22264
0.22269
0.221864
0.220149
0.217521
0.213949
0.209393
0.20381
0.197155
0.18939
0.180487
0.170445
0.159304
0.147154
0.134156
0.703555
0.285181
0.28954
0.292814
0.295037
0.296232
0.296412
0.295573
0.293698
0.290753
0.286691
0.281449
0.274952
0.267117
0.257855
0.247084
0.234743
0.220815
0.205358
0.188537
0.632845
0.356568
0.36156
0.365316
0.3679
0.369357
0.369711
0.368962
0.367089
0.364048
0.359772
0.354175
0.347143
0.33854
0.32821
0.31598
0.301674
0.285148
0.266338
0.245339
0.562134
0.427704
0.43309
0.437143
0.439972
0.441647
0.442204
0.441646
0.439949
0.43706
0.432897
0.427348
0.420263
0.411453
0.400681
0.387653
0.372024
0.353412
0.331457
0.305963
0.632845
0.498465
0.503884
0.507969
0.510875
0.512691
0.51346
0.513186
0.511841
0.509365
0.505668
0.500622
0.494052
0.485729
0.475348
0.462501
0.446641
0.427043
0.402786
0.372863
0.562134
0.568592
0.573551
0.577335
0.580113
0.581971
0.582945
0.583034
0.582207
0.580403
0.577529
0.573456
0.568008
0.560949
0.551954
0.540566
0.526115
0.507575
0.4833
0.450627
0.491423
0.637685
0.641602
0.644744
0.647193
0.648993
0.650156
0.650673
0.650509
0.649609
0.647886
0.645229
0.641483
0.636452
0.629859
0.621331
0.610305
0.595882
0.576373
0.54794
0.774266
-0.0730889
-0.0730825
-0.0730773
-0.0730726
-0.0730682
-0.0730638
-0.0730597
-0.0730557
-0.0730518
-0.0730481
-0.0730444
-0.0730407
-0.0730367
-0.0730325
-0.0730275
-0.0730218
-0.0730149
-0.0730068
-0.0729981
0.703555
-0.00123757
-0.000327859
0.00034733
0.000785963
0.000986715
0.000948165
0.000668305
0.00014428
-0.00062754
-0.00165128
-0.00293093
-0.00446949
-0.00626778
-0.00832299
-0.010627
-0.0131649
-0.015913
-0.0188383
-0.0218977
0.774266
0.0704152
0.0722359
0.0735908
0.074478
0.0748964
0.0748442
0.0743175
0.0733104
0.0718146
0.0698202
0.0673168
0.0642949
0.060749
0.0566798
0.0520982
0.047029
0.041515
0.0356195
0.0294277
0.703555
0.142056
0.144774
0.146803
0.148146
0.148804
0.148778
0.148061
0.146645
0.144515
0.141652
0.138034
0.13364
0.128449
0.122452
0.115649
0.108064
0.0997487
0.0907884
0.0813099
0.632845
0.213664
0.217242
0.219923
0.221719
0.22264
0.22269
0.221864
0.220149
0.217521
0.213949
0.209393
0.20381
0.197155
0.18939
0.180487
0.170445
0.159304
0.147154
0.134156
0.703555
0.285181
0.28954
0.292814
0.295037
0.296232
0.296412
0.295573
0.293698
0.290753
0.286691
0.281449
0.274952
0.267117
0.257855
0.247084
0.234743
0.220815
0.205358
0.188537
0.632845
0.356568
0.36156
0.365316
0.3679
0.369357
0.369711
0.368962
0.367089
0.364048
0.359772
0.354175
0.347143
0.33854
0.32821
0.31598
0.301674
0.285148
0.266338
0.245339
0.562134
0.427704
0.43309
0.437143
0.439972
0.441647
0.442204
0.441646
0.439949
0.43706
0.432897
0.427348
0.420263
0.411453
0.400681
0.387653
0.372024
0.353412
0.331457
0.305963
0.632845
0.498465
0.503884
0.507969
0.510875
0.512691
0.51346
0.513186
0.511841
0.509365
0.505668
0.500622
0.494052
0.485729
0.475348
0.462501
0.446641
0.427043
0.402786
0.372863
0.562134
0.568592
0.573551
0.577335
0.580113
0.581971
0.582945
0.583034
0.582207
0.580403
0.577529
0.573456
0.568008
0.560949
0.551954
0.540566
0.526115
0.507575
0.4833
0.450627
0.491423
0.637685
0.641602
0.644744
0.647193
0.648993
0.650156
0.650673
0.650509
0.649609
0.647886
0.645229
0.641483
0.636452
0.629859
0.621331
0.610305
0.595882
0.576373
0.54794
0.556068
0.701013
0.704117
0.706688
0.708699
0.710143
0.711002
0.711255
0.710859
0.709761
0.707882
0.705126
0.701361
0.696432
0.690126
0.682184
0.672252
0.659896
0.644644
0.626488
0.608138
0.491423
0.764765
0.767163
0.76919
0.770773
0.771874
0.772454
0.772482
0.771911
0.770692
0.768756
0.766028
0.762407
0.757789
0.752038
0.745028
0.736631
0.726813
0.715823
0.704694
0.695829
0.426779
0.828753
0.830578
0.83213
0.833328
0.83412
0.834458
0.834303
0.83361
0.832335
0.830423
0.827819
0.824456
0.820277
0.81522
0.809265
0.802438
0.794914
0.787146
0.780099
0.774911
0.491423
0.892896
0.894262
0.895418
0.896288
0.896816
0.896952
0.896658
0.895889
0.894612
0.892782
0.890367
0.887327
0.883646
0.879315
0.874383
0.868956
0.863269
0.857756
0.853104
0.849682
0.426779
0.95715
0.958152
0.958986
0.959585
0.959898
0.959875
0.95948
0.958676
0.957436
0.955729
0.953538
0.950847
0.947669
0.944029
0.940011
0.935748
0.931466
0.927511
0.92434
0.921915
0.362134
1.02149
1.0222
1.02278
1.02317
1.02331
1.02316
1.02271
1.0219
1.02072
1.01916
1.01721
1.01487
1.01216
1.00914
1.00591
1.00258
0.999354
0.996491
0.994287
0.992491
0.426779
1.0859
1.08639
1.08677
1.08698
1.08699
1.08677
1.08627
1.08549
1.0844
1.08299
1.08127
1.07926
1.07698
1.0745
1.07191
1.06933
1.0669
1.06482
1.06328
1.06191
0.362134
1.15036
1.15068
1.1509
1.15099
1.15091
1.15063
1.15012
1.14938
1.14838
1.14713
1.14564
1.14392
1.14202
1.14
1.13794
1.13595
1.13413
1.13262
1.13156
1.1305
0.297489
1.21486
1.21506
1.21517
1.21517
1.21502
1.21471
1.21421
1.21351
1.21261
1.21151
1.21023
1.20878
1.20721
1.20557
1.20395
1.20242
1.20107
1.2
1.19929
1.19846
0.362134
1.27941
1.27951
1.27954
1.27948
1.27929
1.27897
1.27849
1.27785
1.27705
1.27609
1.27499
1.27378
1.27249
1.27117
1.2699
1.26874
1.26776
1.26703
1.26659
1.26597
0.297489
1.34398
1.34402
1.344
1.34389
1.34369
1.34337
1.34292
1.34234
1.34164
1.34081
1.33988
1.33887
1.33782
1.33677
1.33579
1.33493
1.33424
1.33377
1.33356
1.33311
0.232845
1.40858
1.40858
1.40852
1.4084
1.40819
1.40789
1.40748
1.40696
1.40635
1.40564
1.40485
1.40402
1.40317
1.40235
1.40161
1.40099
1.40054
1.40029
1.40025
1.39996
0.297489
1.47319
1.47317