/*--------------------------------*- C++ -*----------------------------------*\
| =========                 |                                                 |
| \\      /  F ield         | OpenFOAM: The Open Source CFD Toolbox           |
|  \\    /   O peration     | Version:  2512                                  |
|   \\  /    A nd           | Website:  www.openfoam.com                      |
|    \\/     M anipulation  |                                                 |
\*---------------------------------------------------------------------------*/
FoamFile
{
    version     2.0;
    format      ascii;
    arch        "LSB;label=32;scalar=64";
    class       volVectorField;
    location    "0";
    object      U;
}
// * * * * * * * * * * * * * * * * * * * * * * * * * * * * * * * * * * * * * //

dimensions      [0 1 -1 0 0 0 0];

internalField   nonuniform List<vector> 
2000
(
(1.11161 -0.935153 7.8746e-20)
(1.10126 -0.777765 0)
(1.09346 -0.656693 1.40957e-20)
(1.08757 -0.561843 1.20378e-26)
(1.08319 -0.486595 -4.09781e-20)
(1.08007 -0.426692 3.6786e-20)
(1.0779 -0.379567 -4.91095e-20)
(1.07621 -0.344201 -5.18007e-20)
(1.07395 -0.32128 0)
(1.06875 -0.313928 5.51078e-20)
(1.25901 -0.913603 8.40635e-20)
(1.22403 -0.759903 4.36461e-21)
(1.19711 -0.641759 0)
(1.1759 -0.549266 0)
(1.15876 -0.475924 0)
(1.14442 -0.417399 6.18701e-20)
(1.13173 -0.370821 -1.05841e-19)
(1.11939 -0.334311 -4.66717e-20)
(1.10572 -0.306533 1.0638e-19)
(1.0883 -0.286058 1.03626e-19)
(1.40109 -0.869162 8.93796e-20)
(1.34242 -0.722864 8.25239e-20)
(1.29714 -0.61036 0)
(1.26131 -0.522167 5.86387e-20)
(1.23219 -0.451943 3.62759e-20)
(1.20778 -0.395323 -3.7113e-20)
(1.18646 -0.34916 -4.31649e-20)
(1.16682 -0.311004 4.22471e-20)
(1.14755 -0.278619 1.64146e-19)
(1.12752 -0.249494 4.54246e-20)
(1.53447 -0.802984 9.36703e-20)
(1.45361 -0.667644 1.72743e-19)
(1.39122 -0.563469 0)
(1.34189 -0.481592 7.56653e-20)
(1.30196 -0.41604 5.71542e-20)
(1.26881 -0.362629 -1.64569e-20)
(1.24053 -0.318286 0)
(1.21566 -0.280593 3.7858e-20)
(1.19312 -0.247505 3.82318e-20)
(1.17225 -0.217179 0)
(1.6559 -0.716788 -4.89018e-20)
(1.55492 -0.595714 8.67847e-20)
(1.47707 -0.502409 -4.39462e-21)
(1.41568 -0.428892 1.10152e-20)
(1.36624 -0.369762 -2.52444e-20)
(1.32562 -0.321222 5.07998e-20)
(1.29161 -0.280482 1.55057e-20)
(1.26262 -0.245428 -1.75907e-20)
(1.23755 -0.214389 -4.75194e-20)
(1.2157 -0.186047 -4.49047e-21)
(1.76238 -0.612673 -5.14418e-20)
(1.64378 -0.508923 -2.47946e-21)
(1.5525 -0.428891 -3.65822e-21)
(1.4807 -0.365697 -4.59163e-21)
(1.42315 -0.314688 -4.96001e-20)
(1.37626 -0.272605 6.30945e-20)
(1.33751 -0.237088 0)
(1.30512 -0.206376 5.49317e-22)
(1.27784 -0.179136 -3.44413e-20)
(1.25483 -0.154371 3.30243e-20)
(1.85116 -0.493246 0)
(1.71792 -0.409471 -4.78687e-20)
(1.61551 -0.344794 2.89119e-21)
(1.53514 -0.293656 -3.86844e-20)
(1.47096 -0.25229 4.03652e-20)
(1.41897 -0.218074 3.84055e-20)
(1.37639 -0.189108 -3.7473e-20)
(1.34123 -0.164015 3.59487e-20)
(1.31208 -0.141761 -1.14431e-20)
(1.28793 -0.121583 -4.73221e-20)
(1.91997 -0.361424 -2.7229e-22)
(1.77539 -0.299841 -4.86897e-20)
(1.66439 -0.252276 -2.09465e-21)
(1.57744 -0.214632 -2.66342e-20)
(1.50819 -0.18414 4.09153e-20)
(1.45233 -0.158882 3.4561e-21)
(1.40683 -0.137488 -3.79487e-20)
(1.36955 -0.118956 4.07972e-21)
(1.33892 -0.102537 3.15833e-20)
(1.31382 -0.0876797 -3.58757e-20)
(1.96698 -0.22052 8.27001e-23)
(1.81465 -0.182757 -1.23558e-20)
(1.69781 -0.153572 0)
(1.60638 -0.13048 2.17792e-20)
(1.53371 -0.111778 0)
(1.47523 -0.0963024 8.96309e-21)
(1.42776 -0.0832117 -1.08437e-20)
(1.38903 -0.0718997 0)
(1.35739 -0.0619092 9.20257e-21)
(1.33164 -0.0528893 8.91318e-21)
(1.99092 -0.074014 0)
(1.83464 -0.0611128 -1.24262e-20)
(1.71482 -0.0511304 0)
(1.62113 -0.0432418 0)
(1.54672 -0.0368879 0)
(1.48692 -0.0316723 1.00616e-20)
(1.43847 -0.027313 -9.73189e-21)
(1.39901 -0.02361 2.12319e-22)
(1.36682 -0.0204229 9.46956e-21)
(1.34077 -0.0176242 -9.30413e-21)
(0.0985175 -0.0722333 0)
(0.250812 -0.0600329 5.38892e-22)
(0.367602 -0.0505078 0)
(0.458726 -0.0429225 0)
(0.530854 -0.0367622 0)
(0.588653 -0.0316829 -5.26993e-22)
(0.635459 -0.0274488 5.23275e-22)
(0.67371 -0.0239002 -4.55536e-21)
(0.70525 -0.02093 -5.28605e-21)
(0.731509 -0.0184649 5.46182e-21)
(0.121315 -0.214913 -6.45192e-22)
(0.270115 -0.17864 1.35039e-21)
(0.384165 -0.150324 0)
(0.473128 -0.127749 -2.71308e-21)
(0.543525 -0.109402 0)
(0.599886 -0.0942514 -9.55639e-22)
(0.645451 -0.0815996 8.94396e-22)
(0.682577 -0.0709696 0)
(0.713049 -0.0620431 -7.98224e-22)
(0.738247 -0.0546026 -1.53468e-21)
(0.166368 -0.35259 1.27915e-21)
(0.308208 -0.293082 9.67471e-21)
(0.416879 -0.246637 9.77821e-21)
(0.501616 -0.209581 2.92825e-20)
(0.56863 -0.179423 -8.32693e-21)
(0.622203 -0.154467 -1.5724e-20)
(0.665372 -0.133553 2.47123e-20)
(0.70034 -0.115894 -7.51901e-28)
(0.728768 -0.100967 1.15674e-20)
(0.751949 -0.0884267 8.24003e-20)
(0.23272 -0.482179 0)
(0.364273 -0.400736 1.28668e-20)
(0.465034 -0.337213 -9.6505e-21)
(0.543598 -0.286517 -1.0819e-21)
(0.60571 -0.245202 -1.02952e-20)
(0.655289 -0.210911 -1.09256e-20)
(0.695081 -0.18202 9.1955e-21)
(0.727038 -0.157432 -1.0148e-20)
(0.752612 -0.136426 3.87227e-20)
(0.772935 -0.118565 4.65988e-20)
(0.31891 -0.600568 2.08228e-20)
(0.437031 -0.499057 6.43166e-21)
(0.527511 -0.419959 9.4746e-21)
(0.598117 -0.35683 1.18623e-20)
(0.653998 -0.305311 4.19626e-20)
(0.698615 -0.262398 4.17461e-21)
(0.734327 -0.225994 0)
(0.762736 -0.194661 1.37959e-21)
(0.784968 -0.167466 1.08918e-20)
(0.801865 -0.143886 6.42447e-20)
(0.422964 -0.704866 2.20384e-20)
(0.524745 -0.585676 -3.49329e-20)
(0.602795 -0.492936 9.24421e-21)
(0.66386 -0.418955 -2.31737e-20)
(0.712388 -0.358539 1.63678e-20)
(0.751334 -0.308054 1.44895e-20)
(0.782639 -0.264896 0)
(0.807474 -0.227206 -2.05305e-20)
(0.826479 -0.193732 -6.59322e-21)
(0.839943 -0.16379 -1.2814e-20)
(0.542462 -0.792437 -5.19929e-20)
(0.625271 -0.658446 -9.53376e-20)
(0.688918 -0.554371 0)
(0.739021 -0.471496 -4.27259e-20)
(0.779244 -0.403891 -1.4582e-20)
(0.812053 -0.347337 2.92082e-20)
(0.839041 -0.2987 0)
(0.861024 -0.255557 -6.79111e-20)
(0.87807 -0.21604 -7.44288e-20)
(0.889455 -0.178885 0)
(0.674512 -0.860948 -5.88999e-20)
(0.736132 -0.715468 -6.55532e-20)
(0.783641 -0.602723 -1.71693e-20)
(0.821404 -0.513237 -2.54221e-20)
(0.852337 -0.440523 -1.93531e-20)
(0.878486 -0.37995 0)
(0.901362 -0.327935 4.31031e-20)
(0.921931 -0.281423 0)
(0.940336 -0.237484 -1.48455e-19)
(0.954913 -0.193052 -7.44551e-20)
(0.815792 -0.908422 -6.40469e-20)
(0.854438 -0.755113 0)
(0.884402 -0.636637 0)
(0.908537 -0.543007 0)
(0.928938 -0.46751 0)
(0.947255 -0.405405 -5.00611e-20)
(0.965145 -0.35308 1.04715e-19)
(0.984665 -0.307385 6.32062e-20)
(1.00895 -0.264798 -1.11895e-19)
(1.0435 -0.220056 -1.19887e-19)
(0.962688 -0.933386 -7.23688e-20)
(0.977138 -0.776115 0)
(0.988506 -0.654892 -1.52515e-20)
(0.997941 -0.559582 1.11025e-26)
(1.00638 -0.483472 4.4542e-20)
(1.01469 -0.42209 -2.82626e-20)
(1.02381 -0.372508 5.40963e-20)
(1.03503 -0.333074 5.78915e-20)
(1.05033 -0.303419 0)
(1.07303 -0.28503 -4.95273e-20)
(0.756613 -0.0215693 5.104e-21)
(0.782441 -0.0189441 -5.29407e-21)
(0.805025 -0.016321 -5.44764e-21)
(0.824477 -0.0139086 0)
(0.8411 -0.0117955 0)
(0.855271 -0.0100078 5.7913e-21)
(0.867385 -0.00853183 1.17492e-20)
(0.877801 -0.00732543 1.18896e-20)
(0.886824 -0.00633866 1.20133e-20)
(0.894695 -0.00551833 6.05912e-21)
(0.901594 -0.00481825 -3.05388e-21)
(0.907644 -0.00419776 -3.07441e-21)
(0.912923 -0.00362722 -2.90078e-24)
(0.917473 -0.00308151 3.10814e-21)
(0.921308 -0.00254367 3.12115e-21)
(0.924422 -0.00199864 -4.35544e-24)
(0.92679 -0.00143661 -1.57e-21)
(0.928373 -0.000847716 -1.57268e-21)
(0.929122 -0.00022542 0)
(0.928973 0.000442241 0)
(0.76434 -0.0646364 4.05386e-23)
(0.789548 -0.0568067 0)
(0.811379 -0.0487307 -2.17448e-20)
(0.829958 -0.0414036 1.83355e-23)
(0.845741 -0.0350651 2.27648e-20)
(0.859201 -0.0297602 -2.88262e-23)
(0.870775 -0.0254144 3.7003e-23)
(0.880821 -0.0218774 -1.27673e-23)
(0.889621 -0.018985 0)
(0.897379 -0.0165725 8.16564e-24)
(0.904238 -0.0145013 1.84805e-24)
(0.910291 -0.0126542 0)
(0.915594 -0.0109464 6.19829e-21)
(0.920175 -0.00930858 -1.94432e-24)
(0.924043 -0.00769345 -6.25507e-21)
(0.927192 -0.00606032 -9.33289e-25)
(0.929603 -0.00438134 0)
(0.931247 -0.00262897 0)
(0.932081 -0.000782474 0)
(0.932056 0.00119252 -2.54343e-23)
(0.780541 -0.107442 4.05509e-23)
(0.804421 -0.0944809 -8.40248e-20)
(0.824485 -0.0803373 1.66547e-24)
(0.841153 -0.0678619 4.43246e-20)
(0.855192 -0.057341 8.56787e-24)
(0.867243 -0.0487214 -2.3197e-20)
(0.877785 -0.0417609 -2.33849e-20)
(0.887145 -0.0361345 0)
(0.89553 -0.0315244 -2.19349e-23)
(0.903064 -0.0276478 0)
(0.909817 -0.0242775 9.1086e-24)
(0.915825 -0.0212358 -3.79617e-24)
(0.921109 -0.0183958 1.19946e-24)
(0.925678 -0.0156627 0)
(0.929536 -0.0129672 1.069e-23)
(0.932684 -0.0102556 1.53932e-23)
(0.935117 -0.00748568 0)
(0.936825 -0.00461824 2.50867e-23)
(0.937786 -0.0016169 3.02038e-23)
(0.937972 0.00157376 9.38574e-24)
(0.806366 -0.149604 0)
(0.82796 -0.131538 -1.93703e-22)
(0.844789 -0.110384 4.29455e-20)
(0.858327 -0.0925198 -1.98725e-22)
(0.869764 -0.0780244 -4.4933e-20)
(0.879873 -0.0664949 -8.17145e-23)
(0.889083 -0.0573446 5.31943e-23)
(0.897584 -0.0499778 0)
(0.90543 -0.0438897 2.40043e-20)
(0.912613 -0.0386864 2.42074e-20)
(0.919105 -0.0340759 -2.54283e-23)
(0.924884 -0.0298484 -2.4822e-20)
(0.92994 -0.0258626 -2.49638e-20)
(0.934278 -0.022019 -1.25817e-20)
(0.93791 -0.0182432 2.04621e-23)
(0.940857 -0.0144795 1.27102e-20)
(0.943143 -0.0106792 6.38136e-21)
(0.944792 -0.00679483 6.41538e-21)
(0.945814 -0.00277594 3.16203e-21)
(0.94622 0.00145264 3.24133e-21)
(0.843576 -0.190382 7.92308e-20)
(0.861484 -0.167157 0)
(0.872996 -0.137943 3.8716e-22)
(0.88209 -0.114723 0)
(0.890289 -0.0967955 4.55677e-20)
(0.898238 -0.0829882 4.56854e-20)
(0.906058 -0.0721573 4.71309e-20)
(0.913625 -0.0633713 -1.2231e-22)
(0.920755 -0.0559592 2.36265e-22)
(0.927291 -0.049464 -3.08176e-22)
(0.933127 -0.0435816 -4.92128e-20)
(0.938217 -0.0381123 4.30651e-23)
(0.942557 -0.0329334 0)
(0.946178 -0.0279579 2.5389e-20)
(0.949129 -0.0231222 2.54901e-20)
(0.95147 -0.0183742 1.28136e-20)
(0.953268 -0.0136648 -1.9708e-23)
(0.954589 -0.00893825 -6.50473e-21)
(0.955489 -0.00413193 3.09201e-21)
(0.956025 0.000844941 -3.2386e-21)
(0.894352 -0.228485 7.95656e-20)
(0.9065 -0.199993 8.19148e-20)
(0.910163 -0.162078 4.65496e-22)
(0.913888 -0.13422 0)
(0.918837 -0.113827 -4.47438e-20)
(0.924848 -0.0984472 -9.16852e-20)
(0.931332 -0.0862782 6.15238e-22)
(0.937709 -0.0761317 4.76664e-20)
(0.943571 -0.0672931 0)
(0.948695 -0.0593435 0)
(0.952995 -0.0520329 5.00886e-20)
(0.956482 -0.0452126 5.03257e-20)
(0.959223 -0.0387948 0)
(0.961316 -0.0327097 2.26493e-23)
(0.962867 -0.0269046 0)
(0.963991 -0.0213281 -1.61442e-23)
(0.964798 -0.0159271 0)
(0.965396 -0.0106389 -5.24759e-23)
(0.965883 -0.00538827 -7.0304e-23)
(0.966365 -7.57136e-05 0)
(0.961026 -0.261734 -8.08446e-22)
(0.964801 -0.228415 6.86031e-22)
(0.958765 -0.182578 -5.40518e-22)
(0.957631 -0.15174 4.36156e-22)
(0.960228 -0.129899 -3.61967e-22)
(0.96459 -0.11317 0)
(0.969214 -0.0993899 2.57897e-22)
(0.97324 -0.0874221 2.17033e-22)
(0.976307 -0.0767102 -4.96152e-20)
(0.978361 -0.0669698 -4.95473e-20)
(0.979495 -0.0580378 -1.16995e-22)
(0.979879 -0.0498114 -8.91002e-23)
(0.979699 -0.0422198 6.34007e-23)
(0.979134 -0.0351891 -2.59941e-20)
(0.978353 -0.0286571 -2.60239e-20)
(0.977505 -0.0225573 3.02098e-24)
(0.976725 -0.0168221 0)
(0.976142 -0.0113777 -4.07773e-23)
(0.975872 -0.00613919 6.6677e-21)
(0.976048 -0.00100897 6.53544e-21)
(1.0458 -0.286927 -8.86892e-22)
(1.04079 -0.25216 0)
(1.02692 -0.201472 8.58187e-20)
(1.02356 -0.169195 8.83018e-20)
(1.02435 -0.145576 -4.09857e-22)
(1.0255 -0.126329 0)
(1.02545 -0.109704 2.88263e-22)
(1.02386 -0.0949781 2.38513e-22)
(1.02092 -0.081824 -1.94197e-22)
(1.01701 -0.0700587 1.54664e-22)
(1.0125 -0.0595309 -1.19371e-22)
(1.00773 -0.0501144 -5.2358e-20)
(1.00296 -0.0416925 -1.04663e-19)
(0.998425 -0.0341488 -5.24042e-20)
(0.994294 -0.027373 1.19265e-23)
(0.990707 -0.0212655 8.46927e-24)
(0.987775 -0.015725 0)
(0.985595 -0.0106615 -1.33407e-20)
(0.984254 -0.00597998 -1.32487e-20)
(0.983862 -0.00160024 -7.45223e-23)
(1.1558 -0.306076 4.97869e-22)
(1.15522 -0.277456 0)
(1.14049 -0.223105 -9.05019e-20)
(1.13431 -0.186764 -9.14485e-20)
(1.12729 -0.157901 9.76868e-20)
(1.1174 -0.133513 9.80651e-20)
(1.10515 -0.112558 0)
(1.09155 -0.0944945 0)
(1.07749 -0.0789316 0)
(1.06363 -0.0655452 -9.20607e-23)
(1.05042 -0.0540424 0)
(1.03817 -0.0441674 0)
(1.0271 -0.0356993 -5.35198e-20)
(1.01733 -0.0284376 -5.31324e-20)
(1.00895 -0.0222028 0)
(1.00201 -0.0168411 0)
(0.996521 -0.0122088 0)
(0.992493 -0.00818285 3.85083e-23)
(0.989908 -0.00465317 6.70277e-21)
(0.988761 -0.00154909 6.69574e-21)
(1.16762 -0.33882 5.53126e-22)
(1.19431 -0.312911 7.90363e-20)
(1.1832 -0.250317 8.19813e-20)
(1.1712 -0.202181 3.216e-22)
(1.15433 -0.163916 9.4888e-20)
(1.13514 -0.132983 -2.79699e-21)
(1.11561 -0.10772 -1.97393e-19)
(1.09683 -0.0869708 2.40872e-21)
(1.07931 -0.0698668 1.00871e-19)
(1.06331 -0.0557618 -7.54935e-23)
(1.04893 -0.0441368 0)
(1.0362 -0.0345849 0)
(1.02513 -0.0267676 5.30918e-20)
(1.01568 -0.020406 -6.13645e-22)
(1.00782 -0.0152514 -2.62215e-20)
(1.0015 -0.0110997 2.65727e-20)
(0.996645 -0.00775806 0)
(0.993178 -0.00506292 9.13806e-24)
(0.990985 -0.00285687 0)
(0.989899 -0.00101104 0)
(1.07897 -0.335019 0)
(1.02333 -0.304225 0)
(0.978644 -0.249604 0)
(0.955688 -0.201955 0)
(0.945435 -0.163026 0)
(0.942204 -0.131493 0)
(0.942919 -0.105837 0)
(0.945894 -0.0848736 0)
(0.950142 -0.0676868 0)
(0.95505 -0.0535989 0)
(0.960213 -0.0420672 0)
(0.965353 -0.0326707 0)
(0.970271 -0.025054 0)
(0.974822 -0.018928 0)
(0.978895 -0.0140327 0)
(0.982409 -0.0101508 0)
(0.985298 -0.00707589 0)
(0.98751 -0.00462677 0)
(0.988995 -0.00261935 0)
(0.98972 -0.000873532 0)
(1.12123 -0.273024 0)
(1.06057 -0.249781 0)
(1.01892 -0.217562 0)
(0.992622 -0.184605 0)
(0.977152 -0.154525 0)
(0.968821 -0.12831 0)
(0.965095 -0.105899 0)
(0.964329 -0.0869155 0)
(0.965446 -0.0709112 0)
(0.96773 -0.0574723 0)
(0.970686 -0.0462262 0)
(0.973968 -0.0368541 0)
(0.977324 -0.0290736 0)
(0.980568 -0.0226407 0)
(0.983561 -0.0173336 0)
(0.986198 -0.0129557 0)
(0.988397 -0.00932152 0)
(0.990097 -0.00626052 0)
(0.99125 -0.00360356 0)
(0.991826 -0.00118062 0)
(1.12392 -0.212581 0)
(1.07879 -0.204361 0)
(1.04382 -0.186315 0)
(1.01872 -0.164435 0)
(1.00173 -0.142216 0)
(0.990829 -0.121371 0)
(0.984313 -0.102579 0)
(0.980882 -0.0860137 0)
(0.979586 -0.0716013 0)
(0.979735 -0.0591764 0)
(0.980832 -0.0485316 0)
(0.982506 -0.0394608 0)
(0.984485 -0.0317589 0)
(0.986562 -0.0252374 0)
(0.98858 -0.0197143 0)
(0.990421 -0.015023 0)
(0.991993 -0.0110005 0)
(0.993228 -0.00749504 0)
(0.994075 -0.00435464 0)
(0.994504 -0.00142874 0)
(1.11943 -0.170417 0)
(1.08683 -0.168808 0)
(1.05884 -0.158955 0)
(1.03672 -0.144649 0)
(1.02022 -0.128583 0)
(1.00846 -0.11242 0)
(1.00045 -0.0970742 0)
(0.995307 -0.0829896 0)
(0.992284 -0.0703344 0)
(0.990799 -0.0591218 0)
(0.990401 -0.0492849 0)
(0.99074 -0.0407134 0)
(0.991547 -0.0332792 0)
(0.992613 -0.0268452 0)
(0.993776 -0.0212737 0)
(0.994912 -0.0164268 0)
(0.995925 -0.0121699 0)
(0.996743 -0.00836886 0)
(0.997316 -0.00489303 0)
(0.997609 -0.00160978 0)
(1.1145 -0.14092 0)
(1.09025 -0.141534 0)
(1.06798 -0.13608 0)
(1.0491 -0.126657 0)
(1.03396 -0.115081 0)
(1.02234 -0.102683 0)
(1.01374 -0.0903364 0)
(1.00762 -0.0785629 0)
(1.00345 -0.0676462 0)
(1.00078 -0.0577117 0)
(0.99924 -0.0487881 0)
(0.998512 -0.0408432 0)
(0.998353 -0.0338102 0)
(0.998567 -0.0276007 0)
(0.998999 -0.0221153 0)
(0.999525 -0.0172473 0)
(1.00005 -0.0128869 0)
(1.0005 -0.00892201 0)
(1.00083 -0.00524038 0)
(1.00101 -0.00172801 0)
(1.11044 -0.119195 0)
(1.09167 -0.120341 0)
(1.07372 -0.117188 0)
(1.05772 -0.110831 0)
(1.04419 -0.102418 0)
(1.0332 -0.0929128 0)
(1.02457 -0.0830399 0)
(1.018 -0.0732936 0)
(1.01314 -0.0639879 0)
(1.00966 -0.0553018 0)
(1.00727 -0.0473217 0)
(1.00572 -0.0400693 0)
(1.00479 -0.0335243 0)
(1.00431 -0.0276381 0)
(1.00413 -0.0223441 0)
(1.00414 -0.0175638 0)
(1.00425 -0.0132109 0)
(1.00439 -0.0091941 0)
(1.00451 -0.0054194 0)
(1.00458 -0.00179027 0)
(1.10734 -0.102342 0)
(1.09226 -0.103445 0)
(1.07749 -0.101498 0)
(1.06387 -0.0970658 0)
(1.05188 -0.0908486 0)
(1.04172 -0.0835153 0)
(1.03336 -0.0756218 0)
(1.02667 -0.0675894 0)
(1.02145 -0.0597147 0)
(1.01745 -0.052191 0)
(1.01447 -0.0451319 0)
(1.01231 -0.038592 0)
(1.01078 -0.032583 0)
(1.00975 -0.0270862 0)
(1.00907 -0.0220618 0)
(1.00866 -0.0174548 0)
(1.00842 -0.0132001 0)
(1.0083 -0.00922529 0)
(1.00824 -0.00545334 0)
(1.00822 -0.00180411 0)
(1.10503 -0.0886926 0)
(1.09252 -0.0895881 0)
(1.0801 -0.088286 0)
(1.06837 -0.0850785 0)
(1.05774 -0.0803907 0)
(1.04843 -0.0746744 0)
(1.0405 -0.0683401 0)
(1.0339 -0.0617259 0)
(1.02853 -0.0550896 0)
(1.02424 -0.0486149 0)
(1.02087 -0.0424228 0)
(1.01827 -0.0365838 0)
(1.0163 -0.0311296 0)
(1.01483 -0.0260623 0)
(1.01376 -0.0213624 0)
(1.013 -0.016994 0)
(1.01248 -0.0129098 0)
(1.01214 -0.0090538 0)
(1.01193 -0.00536463 0)
(1.01184 -0.00177689 0)
(1.10334 -0.0772459 0)
(1.09267 -0.0779134 0)
(1.082 -0.0769678 0)
(1.07176 -0.0745612 0)
(1.06228 -0.0709523 0)
(1.05377 -0.0664438 0)
(1.04631 -0.0613323 0)
(1.03992 -0.0558796 0)
(1.03456 -0.0502991 0)
(1.03012 -0.0447534 0)
(1.0265 -0.0393583 0)
(1.0236 -0.0341891 0)
(1.02131 -0.0292879 0)
(1.01951 -0.0246702 0)
(1.01814 -0.0203308 0)
(1.01711 -0.0162487 0)
(1.01636 -0.0123908 0)
(1.01584 -0.00871534 0)
(1.01552 -0.00517436 0)
(1.01536 -0.00171559 0)
(1.10211 -0.0673678 0)
(1.09279 -0.0678357 0)
(1.08345 -0.0670979 0)
(1.07438 -0.065234 0)
(1.06586 -0.0624027 0)
(1.05805 -0.0588064 0)
(1.05106 -0.0546574 0)
(1.04494 -0.0501543 0)
(1.03966 -0.0454681 0)
(1.03518 -0.0407367 0)
(1.03143 -0.0360642 0)
(1.02834 -0.0315236 0)
(1.02581 -0.0271605 0)
(1.02379 -0.022998 0)
(1.02218 -0.0190406 0)
(1.02094 -0.015278 0)
(1.02001 -0.0116886 0)
(1.01935 -0.00824195 0)
(1.01893 -0.00490156 0)
(1.01873 -0.00162652 0)
(1.10124 -0.0586404 0)
(1.09294 -0.0589485 0)
(1.0846 -0.0583426 0)
(1.07646 -0.0568627 0)
(1.06871 -0.0546072 0)
(1.06151 -0.051712 0)
(1.05496 -0.0483283 0)
(1.04911 -0.0446051 0)
(1.04397 -0.0406766 0)
(1.03952 -0.0366565 0)
(1.03572 -0.0326346 0)
(1.03251 -0.0286774 0)
(1.02983 -0.02483 0)
(1.02763 -0.0211188 0)
(1.02586 -0.0175541 0)
(1.02446 -0.0141331 0)
(1.0234 -0.0108427 0)
(1.02263 -0.00766179 0)
(1.02213 -0.00456308 0)
(1.02189 -0.0015153 0)
(1.10063 -0.0507736 0)
(1.09309 -0.0509625 0)
(1.08554 -0.0504507 0)
(1.07812 -0.0492568 0)
(1.07101 -0.0474417 0)
(1.06433 -0.0450973 0)
(1.05817 -0.0423313 0)
(1.05259 -0.0392546 0)
(1.04761 -0.0359716 0)
(1.04322 -0.0325738 0)
(1.03941 -0.0291367 0)
(1.03614 -0.0257186 0)
(1.03337 -0.0223612 0)
(1.03106 -0.0190913 0)
(1.02917 -0.0159223 0)
(1.02765 -0.0128564 0)
(1.02648 -0.00988662 0)
(1.02563 -0.00699883 0)
(1.02508 -0.00417334 0)
(1.0248 -0.00138673 0)
(1.1002 -0.0435571 0)
(1.09326 -0.043666 0)
(1.08631 -0.0432322 0)
(1.07947 -0.0422632 0)
(1.07287 -0.0407971 0)
(1.06662 -0.0388964 0)
(1.06081 -0.0366382 0)
(1.05547 -0.034105 0)
(1.05065 -0.031377 0)
(1.04636 -0.028527 0)
(1.04257 -0.025617 0)
(1.03928 -0.0226967 0)
(1.03646 -0.019803 0)
(1.03407 -0.0169614 0)
(1.0321 -0.0141862 0)
(1.0305 -0.0114826 0)
(1.02925 -0.00884784 0)
(1.02834 -0.00627305 0)
(1.02774 -0.00374443 0)
(1.02745 -0.00124486 0)
(1.0999 -0.0368422 0)
(1.09342 -0.036903 0)
(1.08694 -0.0365418 0)
(1.08056 -0.0357594 0)
(1.07438 -0.0345799 0)
(1.06849 -0.0330464 0)
(1.06296 -0.0312146 0)
(1.05785 -0.0291456 0)
(1.05319 -0.0269008 0)
(1.04898 -0.0245375 0)
(1.04524 -0.0221056 0)
(1.04196 -0.0196463 0)
(1.03911 -0.0171915 0)
(1.03668 -0.0147639 0)
(1.03465 -0.0123776 0)
(1.03299 -0.0100391 0)
(1.03169 -0.00774853 0)
(1.03074 -0.00550068 0)
(1.03011 -0.00328624 0)
(1.02979 -0.001093 0)
(1.09969 -0.0305134 0)
(1.09356 -0.0305546 0)
(1.08745 -0.0302662 0)
(1.08143 -0.0296463 0)
(1.07558 -0.0287105 0)
(1.06999 -0.0274894 0)
(1.06471 -0.0260234 0)
(1.05979 -0.0243581 0)
(1.05526 -0.0225404 0)
(1.05115 -0.0206145 0)
(1.04746 -0.0186199 0)
(1.0442 -0.0165902 0)
(1.04134 -0.0145518 0)
(1.03889 -0.0125243 0)
(1.03682 -0.0105204 0)
(1.03513 -0.00854715 0)
(1.03379 -0.00660609 0)
(1.0328 -0.0046946 0)
(1.03215 -0.00280665 0)
(1.03183 -0.000933817 0)
(1.09952 -0.0244804 0)
(1.09366 -0.024529 0)
(1.08785 -0.0243171 0)
(1.08211 -0.0238438 0)
(1.07653 -0.0231213 0)
(1.07117 -0.0221725 0)
(1.06609 -0.0210275 0)
(1.06133 -0.0197202 0)
(1.05693 -0.018286 0)
(1.0529 -0.0167585 0)
(1.04927 -0.0151685 0)
(1.04602 -0.0135422 0)
(1.04317 -0.0119009 0)
(1.04071 -0.0102606 0)
(1.03862 -0.00863239 0)
(1.03691 -0.00702269 0)
(1.03555 -0.00543383 0)
(1.03454 -0.0038648 0)
(1.03387 -0.00231186 0)
(1.03353 -0.000769403 0)
(1.09936 -0.0186792 0)
(1.09372 -0.0187577 0)
(1.08813 -0.0186247 0)
(1.08262 -0.0182858 0)
(1.07725 -0.017754 0)
(1.07208 -0.017048 0)
(1.06716 -0.0161906 0)
(1.06253 -0.0152071 0)
(1.05822 -0.0141233 0)
(1.05427 -0.0129643 0)
(1.05068 -0.011753 0)
(1.04746 -0.0105091 0)
(1.04462 -0.00924886 0)
(1.04216 -0.00798485 0)
(1.04006 -0.00672587 0)
(1.03833 -0.00547738 0)
(1.03695 -0.00424176 0)
(1.03593 -0.0030189 0)
(1.03525 -0.00180665 0)
(1.03491 -0.000601394 0)
(1.09917 -0.0130712 0)
(1.09372 -0.0131926 0)
(1.08832 -0.0131343 0)
(1.08298 -0.0129168 0)
(1.07777 -0.0125572 0)
(1.07274 -0.0120717 0)
(1.06793 -0.0114775 0)
(1.0634 -0.0107926 0)
(1.05917 -0.010035 0)
(1.05527 -0.00922225 0)
(1.05172 -0.00837014 0)
(1.04853 -0.00749257 0)
(1.0457 -0.00660102 0)
(1.04323 -0.00570441 0)
(1.04113 -0.00480916 0)
(1.03939 -0.00391938 0)
(1.038 -0.00303708 0)
(1.03697 -0.00216251 0)
(1.03628 -0.00129453 0)
(1.03594 -0.000430982 0)
(1.09892 -0.00765318 0)
(1.09366 -0.00780384 0)
(1.08841 -0.00780007 0)
(1.0832 -0.00768697 0)
(1.0781 -0.00748309 0)
(1.07316 -0.00720135 0)
(1.06844 -0.0068531 0)
(1.06397 -0.00644948 0)
(1.05979 -0.00600145 0)
(1.05593 -0.00551948 0)
(1.05241 -0.00501308 0)
(1.04923 -0.00449056 0)
(1.04641 -0.00395877 0)
(1.04395 -0.00342307 0)
(1.04184 -0.00288738 0)
(1.0401 -0.00235421 0)
(1.03871 -0.00182488 0)
(1.03767 -0.0012997 0)
(1.03698 -0.000778138 0)
(1.03663 -0.000259058 0)
(1.0986 -0.00249698 0)
(1.09357 -0.00257543 0)
(1.08844 -0.00258335 0)
(1.0833 -0.00255044 0)
(1.07826 -0.00248553 0)
(1.07337 -0.00239382 0)
(1.06869 -0.00227941 0)
(1.06425 -0.0021462 0)
(1.0601 -0.00199792 0)
(1.05626 -0.00183812 0)
(1.05275 -0.00167001 0)
(1.04958 -0.00149639 0)
(1.04677 -0.00131954 0)
(1.0443 -0.00114127 0)
(1.0422 -0.000962871 0)
(1.04045 -0.000785211 0)
(1.03906 -0.000608731 0)
(1.03802 -0.000433573 0)
(1.03732 -0.00025958 0)
(1.03698 -8.64087e-05 0)
(1.32569 -0.0162195 -1.36562e-21)
(1.3251 -0.0491724 1.12128e-21)
(1.32376 -0.0844759 1.61003e-21)
(1.32104 -0.123318 4.46403e-21)
(1.31571 -0.166513 8.88324e-21)
(1.30612 -0.214227 -6.93449e-20)
(1.28977 -0.265544 0)
(1.26234 -0.31695 0)
(1.21674 -0.358119 2.05474e-21)
(1.14551 -0.341359 1.93437e-21)
(1.31379 -0.016098 2.08726e-22)
(1.31511 -0.0485835 0)
(1.31763 -0.0835608 1.48663e-20)
(1.32034 -0.122277 -2.23197e-21)
(1.32148 -0.165279 0)
(1.31846 -0.211851 -3.1882e-20)
(1.30737 -0.258929 3.85467e-20)
(1.28232 -0.29878 -4.31916e-21)
(1.23617 -0.316628 0)
(1.18125 -0.299128 -5.56653e-20)
(1.29846 -0.0158924 2.06411e-22)
(1.2978 -0.0472497 2.29645e-21)
(1.29639 -0.0799084 -1.56026e-21)
(1.29322 -0.11424 -1.26606e-20)
(1.28657 -0.149726 4.34373e-21)
(1.27419 -0.1844 4.29864e-21)
(1.25355 -0.214157 4.02671e-20)
(1.22313 -0.232631 -4.28822e-20)
(1.1866 -0.235855 4.71501e-20)
(1.15834 -0.24251 -6.08168e-20)
(1.28196 -0.0150844 0)
(1.27981 -0.0442608 1.90226e-22)
(1.27555 -0.0737349 -1.12753e-20)
(1.26833 -0.103239 -8.7229e-22)
(1.25692 -0.131673 0)
(1.24007 -0.156855 0)
(1.21722 -0.175674 4.10864e-21)
(1.18999 -0.185743 -4.1542e-20)
(1.16374 -0.19127 5.38073e-20)
(1.14414 -0.212912 1.93434e-21)
(1.26516 -0.013865 0)
(1.26202 -0.040177 -6.45108e-23)
(1.25593 -0.0660519 -3.66826e-21)
(1.24636 -0.0908527 1.23595e-20)
(1.23269 -0.113352 8.3302e-21)
(1.21468 -0.131846 1.8906e-20)
(1.19314 -0.144863 -4.02957e-21)
(1.17059 -0.153139 -3.95254e-21)
(1.15077 -0.163343 -4.64285e-20)
(1.13433 -0.189503 -5.02913e-20)
(1.24876 -0.0124006 -1.55739e-22)
(1.24507 -0.0354984 -2.10811e-21)
(1.23802 -0.0577104 -9.97101e-22)
(1.22743 -0.0782641 -2.07616e-21)
(1.21324 -0.0961114 0)
(1.19593 -0.110273 2.98443e-20)
(1.17687 -0.120667 0)
(1.15833 -0.129541 0)
(1.14219 -0.142918 -4.78909e-20)
(1.12721 -0.168753 -4.06432e-21)
(1.2332 -0.0108275 7.33421e-22)
(1.22933 -0.0306291 3.12263e-21)
(1.22202 -0.0493501 3.35707e-21)
(1.21138 -0.0662575 2.04804e-21)
(1.19774 -0.080618 -2.99866e-21)
(1.18199 -0.0921195 5.30697e-21)
(1.16553 -0.101528 3.93959e-21)
(1.14997 -0.111406 3.88607e-21)
(1.13597 -0.126209 0)
(1.12194 -0.150028 9.40831e-20)
(1.21881 -0.00925193 -1.32797e-21)
(1.21501 -0.0258664 -1.02895e-21)
(1.20791 -0.0414036 0)
(1.19781 -0.055271 0)
(1.18531 -0.0670632 -1.16526e-20)
(1.17137 -0.0769415 -1.42818e-20)
(1.1572 -0.086035 3.91263e-21)
(1.14381 -0.0966176 3.86641e-21)
(1.13122 -0.111659 0)
(1.11799 -0.133092 4.26799e-21)
(1.20571 -0.00774576 -2.80235e-22)
(1.20216 -0.0214088 8.14963e-22)
(1.19558 -0.034134 -2.02375e-21)
(1.18637 -0.0455071 -1.84763e-21)
(1.17523 -0.0553979 -5.97543e-21)
(1.16308 -0.0642354 0)
(1.15084 -0.0731895 1.04364e-20)
(1.13906 -0.0840418 -3.85136e-21)
(1.12751 -0.0986192 0)
(1.11501 -0.11773 -4.34248e-20)
(1.19399 -0.00635761 8.71424e-22)
(1.1908 -0.017376 1.86755e-21)
(1.1849 -0.0276705 0)
(1.17673 -0.0370046 -8.02328e-21)
(1.16699 -0.0454493 -5.05643e-21)
(1.15646 -0.0535384 -3.91196e-21)
(1.14581 -0.0623109 1.48145e-20)
(1.1353 -0.073047 3.83951e-21)
(1.12458 -0.086771 -1.90346e-21)
(1.11277 -0.10373 -1.88316e-21)
(1.1836 -0.00511437 5.76361e-23)
(1.18083 -0.0138227 1.99983e-21)
(1.17568 -0.0220497 4.29883e-25)
(1.16859 -0.0297128 -1.9782e-21)
(1.16018 -0.0370078 9.66286e-21)
(1.15107 -0.0444704 0)
(1.14173 -0.052933 -1.59549e-20)
(1.13223 -0.0632458 -3.8299e-21)
(1.12222 -0.0759026 0)
(1.11106 -0.0908865 0)
(1.17453 -0.00402563 -9.34056e-22)
(1.17217 -0.0107591 -9.92766e-22)
(1.16777 -0.017245 -3.06396e-21)
(1.16171 -0.0235276 5.00232e-21)
(1.1545 -0.029865 7.8153e-21)
(1.14663 -0.036731 3.88015e-21)
(1.13838 -0.0447446 -1.63316e-20)
(1.12973 -0.0544161 8.42847e-21)
(1.12036 -0.0658939 0)
(1.10978 -0.079039 0)
(1.16665 -0.00309138 9.88142e-22)
(1.16471 -0.00816815 9.86464e-22)
(1.16103 -0.0132028 -4.07506e-21)
(1.15591 -0.0183297 3.91719e-21)
(1.14977 -0.0238285 0)
(1.14295 -0.0300841 0)
(1.13561 -0.037519 3.84345e-21)
(1.12768 -0.0463865 2.72477e-20)
(1.11886 -0.0566182 9.94475e-21)
(1.10881 -0.0680228 -1.46444e-20)
(1.15991 -0.00230226 -4.19581e-23)
(1.15835 -0.00601435 2.5721e-22)
(1.15533 -0.00984677 -1.01511e-21)
(1.15106 -0.0139936 1.10124e-22)
(1.14585 -0.0187269 -6.88917e-21)
(1.13992 -0.0243405 -3.60388e-21)
(1.13334 -0.0310858 7.98551e-21)
(1.126 -0.0390277 1.49674e-20)
(1.11765 -0.0479731 1.03852e-20)
(1.10806 -0.0577034 -4.22858e-21)
(1.15419 -0.00164842 9.33672e-22)
(1.15299 -0.00425946 1.46385e-21)
(1.15057 -0.00710615 -1.94848e-21)
(1.14706 -0.0104111 -7.11029e-22)
(1.14265 -0.0144213 -3.11585e-21)
(1.13748 -0.0193452 -7.57966e-21)
(1.13152 -0.0253038 4.29643e-21)
(1.12467 -0.0322307 3.8068e-21)
(1.11672 -0.0398615 2.33654e-21)
(1.1075 -0.0479579 5.03088e-21)
(1.14943 -0.00111537 9.73566e-22)
(1.14854 -0.00285955 1.2009e-21)
(1.14667 -0.00490173 -1.94194e-21)
(1.14382 -0.007473 1.93655e-21)
(1.14011 -0.0107816 6.69238e-21)
(1.13556 -0.0149631 3.84464e-21)
(1.13011 -0.0200466 -3.82624e-21)
(1.12364 -0.025884 -3.80386e-21)
(1.116 -0.0321738 4.42928e-21)
(1.10706 -0.0386632 -4.78758e-21)
(1.14551 -0.000693631 0)
(1.14493 -0.00177823 0)
(1.14354 -0.00317169 0)
(1.14128 -0.00509092 -3.11278e-22)
(1.13816 -0.00770087 -2.90309e-22)
(1.13413 -0.0110813 0)
(1.12908 -0.0152017 1.04173e-21)
(1.12289 -0.0198774 0)
(1.11545 -0.0248019 0)
(1.1067 -0.0297111 0)
(1.14238 -0.000372229 0)
(1.14207 -0.000979708 0)
(1.14113 -0.0018529 -1.93266e-21)
(1.13939 -0.00318352 -2.2533e-21)
(1.13679 -0.00508307 4.40198e-21)
(1.13319 -0.00759204 3.83729e-21)
(1.12842 -0.0106556 4.92369e-21)
(1.12239 -0.0140954 4.55375e-21)
(1.11503 -0.0176332 -1.88852e-21)
(1.10636 -0.0210011 -1.87377e-21)
(1.13994 -0.000154453 0)
(1.1399 -0.000437318 0)
(1.13936 -0.000905968 -1.92971e-21)
(1.13811 -0.00169359 1.87499e-21)
(1.13597 -0.00285357 7.48356e-21)
(1.13271 -0.00440374 3.83596e-21)
(1.12813 -0.0062991 -3.98561e-21)
(1.12212 -0.00841227 -2.97029e-21)
(1.1147 -0.0105405 -1.89772e-22)
(1.106 -0.0124439 0)
(1.13809 -3.48733e-05 0)
(1.13822 -0.000111419 1.92801e-21)
(1.13786 -0.000257431 2.05083e-25)
(1.13683 -0.00051888 -1.98151e-21)
(1.13494 -0.000907551 7.06533e-23)
(1.1319 -0.0014285 -3.83351e-21)
(1.12747 -0.00206605 -1.93226e-22)
(1.12152 -0.00277444 3.79855e-21)
(1.1141 -0.00347816 -2.12464e-21)
(1.10545 -0.0040717 -1.87254e-21)
(1.07235 0.322939 5.55737e-20)
(1.07871 0.326903 0)
(1.08097 0.348349 5.18209e-20)
(1.08245 0.382871 4.91814e-20)
(1.08427 0.429517 8.26183e-20)
(1.08701 0.489151 4.10554e-20)
(1.09099 0.564258 -1.20802e-26)
(1.09655 0.659101 -1.41133e-20)
(1.10416 0.780259 0)
(1.11455 0.937824 7.89614e-20)
(1.09082 0.289397 6.57636e-21)
(1.10898 0.310073 1.04803e-20)
(1.12287 0.337704 4.66162e-20)
(1.13527 0.373872 -1.73335e-20)
(1.14785 0.420171 6.21093e-20)
(1.162 0.478498 0)
(1.17889 0.551728 0)
(1.19988 0.644154 0)
(1.22669 0.762265 -4.35896e-21)
(1.2618 0.915945 8.0907e-20)
(1.12999 0.251233 -4.54165e-20)
(1.15026 0.280896 7.65569e-20)
(1.16958 0.313614 -4.21781e-20)
(1.18928 0.351761 -8.33296e-20)
(1.21055 0.397851 3.70522e-20)
(1.23484 0.454387 1.03365e-19)
(1.2638 0.524536 8.76921e-20)
(1.29953 0.612656 0)
(1.34483 0.725033 8.26969e-20)
(1.40377 0.871166 8.95602e-20)
(1.17469 0.218198 0)
(1.19553 0.249098 -4.13324e-20)
(1.21798 0.282682 -3.77835e-20)
(1.24285 0.320525 0)
(1.27108 0.364927 1.64082e-20)
(1.30414 0.418329 8.68865e-20)
(1.34399 0.483842 7.58261e-20)
(1.3933 0.56563 0)
(1.45582 0.669633 1.73057e-19)